MODEL 1
REMARK VINA RESULT:      -7.2      0.000      0.000
REMARK  Name = 2974355
REMARK                            x       y       z     vdW  Elec       q    Type
REMARK                         _______ _______ _______ _____ _____    ______ ____
ROOT
ATOM      1  C   LIG    1      -25.687  11.833  42.067  0.00  0.00    +0.166 C 
ENDROOT
BRANCH   1   3
ATOM      2  O   LIG    1      -26.459  11.798  39.768  0.00  0.00    -0.274 OA
ATOM      3  C   LIG    1      -25.585  11.511  40.582  0.00  0.00    +0.234 C 
ATOM      4  N   LIG    1      -24.376  10.907  40.260  0.00  0.00    -0.311 N 
ATOM      5  H   LIG    1      -23.706  10.689  40.993  0.00  0.00    +0.149 HD
BRANCH   4   6
ATOM      6  C   LIG    1      -24.025  10.554  38.915  0.00  0.00    +0.073 C 
ATOM      7  C   LIG    1      -23.608   9.156  38.564  0.00  0.00    +0.024 C 
ATOM      8  C   LIG    1      -22.603  10.269  38.532  0.00  0.00    +0.024 C 
ENDBRANCH   4   6
ENDBRANCH   1   3
BRANCH   1   9
ATOM      9  N   LIG    1      -24.919  10.841  42.774  0.00  0.00    -0.269 N 
ATOM     10  H   LIG    1      -24.202  10.331  42.268  0.00  0.00    +0.153 HD
ATOM     11  C   LIG    1      -25.142  10.490  44.091  0.00  0.00    +0.401 C 
ATOM     12  O   LIG    1      -26.006  10.965  44.820  0.00  0.00    -0.226 OA
BRANCH  11  13
ATOM     13  O   LIG    1      -24.253   9.524  44.470  0.00  0.00    -0.446 OA
BRANCH  13  14
ATOM     14  C   LIG    1      -24.430   8.994  45.788  0.00  0.00    +0.269 C 
BRANCH  14  15
ATOM     15  C   LIG    1      -24.122   7.525  45.771  0.00  0.00    -0.010 A 
ATOM     16  C   LIG    1      -22.895   7.075  45.283  0.00  0.00    +0.007 A 
ATOM     17  C   LIG    1      -22.610   5.711  45.268  0.00  0.00    +0.000 A 
ATOM     18  C   LIG    1      -23.550   4.795  45.740  0.00  0.00    +0.000 A 
ATOM     19  C   LIG    1      -24.777   5.245  46.228  0.00  0.00    +0.000 A 
ATOM     20  C   LIG    1      -25.063   6.610  46.243  0.00  0.00    +0.007 A 
ENDBRANCH  14  15
ENDBRANCH  13  14
ENDBRANCH  11  13
ENDBRANCH   1   9
BRANCH   1  21
ATOM     21  C   LIG    1      -25.186  13.257  42.340  0.00  0.00    +0.067 C 
BRANCH  21  22
ATOM     22  C   LIG    1      -26.284  14.185  42.797  0.00  0.00    -0.045 A 
ATOM     23  C   LIG    1      -27.591  13.712  42.919  0.00  0.00    +0.004 A 
ATOM     24  C   LIG    1      -28.606  14.571  43.342  0.00  0.00    +0.000 A 
ATOM     25  C   LIG    1      -28.315  15.900  43.643  0.00  0.00    +0.000 A 
ATOM     26  C   LIG    1      -27.008  16.373  43.521  0.00  0.00    +0.000 A 
ATOM     27  C   LIG    1      -25.993  15.515  43.098  0.00  0.00    +0.004 A 
ENDBRANCH  21  22
ENDBRANCH   1  21
TORSDOF 8
ENDMDL
MODEL 2
REMARK VINA RESULT:      -7.0      1.680      8.001
REMARK  Name = 2974355
REMARK                            x       y       z     vdW  Elec       q    Type
REMARK                         _______ _______ _______ _____ _____    ______ ____
ROOT
ATOM      1  C   LIG    1      -24.923  11.317  42.673  0.00  0.00    +0.166 C 
ENDROOT
BRANCH   1   3
ATOM      2  O   LIG    1      -25.603  10.589  44.885  0.00  0.00    -0.274 OA
ATOM      3  C   LIG    1      -24.852  10.447  43.922  0.00  0.00    +0.234 C 
ATOM      4  N   LIG    1      -23.885   9.456  43.816  0.00  0.00    -0.311 N 
ATOM      5  H   LIG    1      -23.293   9.411  42.991  0.00  0.00    +0.149 HD
BRANCH   4   6
ATOM      6  C   LIG    1      -23.664   8.481  44.845  0.00  0.00    +0.073 C 
ATOM      7  C   LIG    1      -22.346   7.773  44.972  0.00  0.00    +0.024 C 
ATOM      8  C   LIG    1      -23.563   7.020  44.521  0.00  0.00    +0.024 C 
ENDBRANCH   4   6
ENDBRANCH   1   3
BRANCH   1   9
ATOM      9  N   LIG    1      -25.804  12.418  42.968  0.00  0.00    -0.269 N 
ATOM     10  H   LIG    1      -25.886  12.729  43.932  0.00  0.00    +0.153 HD
ATOM     11  C   LIG    1      -26.601  13.039  42.027  0.00  0.00    +0.401 C 
ATOM     12  O   LIG    1      -26.665  12.743  40.839  0.00  0.00    -0.226 OA
BRANCH  11  13
ATOM     13  O   LIG    1      -27.319  14.042  42.617  0.00  0.00    -0.446 OA
BRANCH  13  14
ATOM     14  C   LIG    1      -26.599  14.862  43.544  0.00  0.00    +0.269 C 
BRANCH  14  15
ATOM     15  C   LIG    1      -27.117  16.268  43.457  0.00  0.00    -0.010 A 
ATOM     16  C   LIG    1      -28.491  16.507  43.452  0.00  0.00    +0.007 A 
ATOM     17  C   LIG    1      -28.971  17.814  43.372  0.00  0.00    +0.000 A 
ATOM     18  C   LIG    1      -28.078  18.882  43.295  0.00  0.00    +0.000 A 
ATOM     19  C   LIG    1      -26.704  18.643  43.300  0.00  0.00    +0.000 A 
ATOM     20  C   LIG    1      -26.223  17.336  43.380  0.00  0.00    +0.007 A 
ENDBRANCH  14  15
ENDBRANCH  13  14
ENDBRANCH  11  13
ENDBRANCH   1   9
BRANCH   1  21
ATOM     21  C   LIG    1      -23.520  11.789  42.272  0.00  0.00    +0.067 C 
BRANCH  21  22
ATOM     22  C   LIG    1      -23.115  11.316  40.898  0.00  0.00    -0.045 A 
ATOM     23  C   LIG    1      -21.787  11.426  40.486  0.00  0.00    +0.004 A 
ATOM     24  C   LIG    1      -21.412  10.988  39.215  0.00  0.00    +0.000 A 
ATOM     25  C   LIG    1      -22.365  10.439  38.358  0.00  0.00    +0.000 A 
ATOM     26  C   LIG    1      -23.693  10.329  38.770  0.00  0.00    +0.000 A 
ATOM     27  C   LIG    1      -24.068  10.767  40.040  0.00  0.00    +0.004 A 
ENDBRANCH  21  22
ENDBRANCH   1  21
TORSDOF 8
ENDMDL
MODEL 3
REMARK VINA RESULT:      -6.9     11.124     15.629
REMARK  Name = 2974355
REMARK                            x       y       z     vdW  Elec       q    Type
REMARK                         _______ _______ _______ _____ _____    ______ ____
ROOT
ATOM      1  C   LIG    1      -23.159   8.221  27.766  0.00  0.00    +0.166 C 
ENDROOT
BRANCH   1   3
ATOM      2  O   LIG    1      -21.628  10.013  27.195  0.00  0.00    -0.274 OA
ATOM      3  C   LIG    1      -21.887   9.047  27.909  0.00  0.00    +0.234 C 
ATOM      4  N   LIG    1      -21.096   8.612  28.964  0.00  0.00    -0.311 N 
ATOM      5  H   LIG    1      -21.372   7.796  29.503  0.00  0.00    +0.149 HD
BRANCH   4   6
ATOM      6  C   LIG    1      -19.871   9.264  29.330  0.00  0.00    +0.073 C 
ATOM      7  C   LIG    1      -19.349   9.201  30.735  0.00  0.00    +0.024 C 
ATOM      8  C   LIG    1      -19.872  10.495  30.187  0.00  0.00    +0.024 C 
ENDBRANCH   4   6
ENDBRANCH   1   3
BRANCH   1   9
ATOM      9  N   LIG    1      -24.144   8.796  28.645  0.00  0.00    -0.269 N 
ATOM     10  H   LIG    1      -24.128   9.800  28.800  0.00  0.00    +0.153 HD
ATOM     11  C   LIG    1      -25.073   8.056  29.349  0.00  0.00    +0.401 C 
ATOM     12  O   LIG    1      -25.183   6.835  29.321  0.00  0.00    -0.226 OA
BRANCH  11  13
ATOM     13  O   LIG    1      -25.863   8.889  30.092  0.00  0.00    -0.446 OA
BRANCH  13  14
ATOM     14  C   LIG    1      -25.181   9.932  30.795  0.00  0.00    +0.269 C 
BRANCH  14  15
ATOM     15  C   LIG    1      -24.429   9.335  31.949  0.00  0.00    -0.010 A 
ATOM     16  C   LIG    1      -23.036   9.269  31.915  0.00  0.00    +0.007 A 
ATOM     17  C   LIG    1      -22.338   8.715  32.987  0.00  0.00    +0.000 A 
ATOM     18  C   LIG    1      -23.032   8.225  34.093  0.00  0.00    +0.000 A 
ATOM     19  C   LIG    1      -24.425   8.291  34.127  0.00  0.00    +0.000 A 
ATOM     20  C   LIG    1      -25.123   8.846  33.054  0.00  0.00    +0.007 A 
ENDBRANCH  14  15
ENDBRANCH  13  14
ENDBRANCH  11  13
ENDBRANCH   1   9
BRANCH   1  21
ATOM     21  C   LIG    1      -23.625   8.206  26.305  0.00  0.00    +0.067 C 
BRANCH  21  22
ATOM     22  C   LIG    1      -23.270   6.925  25.592  0.00  0.00    -0.045 A 
ATOM     23  C   LIG    1      -22.683   6.971  24.327  0.00  0.00    +0.004 A 
ATOM     24  C   LIG    1      -22.353   5.787  23.667  0.00  0.00    +0.000 A 
ATOM     25  C   LIG    1      -22.611   4.557  24.271  0.00  0.00    +0.000 A 
ATOM     26  C   LIG    1      -23.198   4.511  25.536  0.00  0.00    +0.000 A 
ATOM     27  C   LIG    1      -23.528   5.695  26.196  0.00  0.00    +0.004 A 
ENDBRANCH  21  22
ENDBRANCH   1  21
TORSDOF 8
ENDMDL
MODEL 4
REMARK VINA RESULT:      -6.9      2.554      8.022
REMARK  Name = 2974355
REMARK                            x       y       z     vdW  Elec       q    Type
REMARK                         _______ _______ _______ _____ _____    ______ ____
ROOT
ATOM      1  C   LIG    1      -24.892  11.199  42.523  0.00  0.00    +0.166 C 
ENDROOT
BRANCH   1   3
ATOM      2  O   LIG    1      -23.988   9.251  43.650  0.00  0.00    -0.274 OA
ATOM      3  C   LIG    1      -24.623  10.300  43.723  0.00  0.00    +0.234 C 
ATOM      4  N   LIG    1      -25.132  10.833  44.901  0.00  0.00    -0.311 N 
ATOM      5  H   LIG    1      -25.659  11.701  44.879  0.00  0.00    +0.149 HD
BRANCH   4   6
ATOM      6  C   LIG    1      -24.961  10.193  46.174  0.00  0.00    +0.073 C 
ATOM      7  C   LIG    1      -24.976  10.986  47.448  0.00  0.00    +0.024 C 
ATOM      8  C   LIG    1      -23.699  10.364  46.965  0.00  0.00    +0.024 C 
ENDBRANCH   4   6
ENDBRANCH   1   3
BRANCH   1   9
ATOM      9  N   LIG    1      -26.018  12.033  42.858  0.00  0.00    -0.269 N 
ATOM     10  H   LIG    1      -26.299  12.100  43.832  0.00  0.00    +0.153 HD
ATOM     11  C   LIG    1      -26.786  12.701  41.924  0.00  0.00    +0.401 C 
ATOM     12  O   LIG    1      -26.616  12.673  40.710  0.00  0.00    -0.226 OA
BRANCH  11  13
ATOM     13  O   LIG    1      -27.774  13.404  42.554  0.00  0.00    -0.446 OA
BRANCH  13  14
ATOM     14  C   LIG    1      -27.338  14.360  43.526  0.00  0.00    +0.269 C 
BRANCH  14  15
ATOM     15  C   LIG    1      -28.246  15.554  43.479  0.00  0.00    -0.010 A 
ATOM     16  C   LIG    1      -27.707  16.839  43.408  0.00  0.00    +0.007 A 
ATOM     17  C   LIG    1      -28.551  17.948  43.365  0.00  0.00    +0.000 A 
ATOM     18  C   LIG    1      -29.935  17.773  43.392  0.00  0.00    +0.000 A 
ATOM     19  C   LIG    1      -30.474  16.489  43.463  0.00  0.00    +0.000 A 
ATOM     20  C   LIG    1      -29.630  15.379  43.507  0.00  0.00    +0.007 A 
ENDBRANCH  14  15
ENDBRANCH  13  14
ENDBRANCH  11  13
ENDBRANCH   1   9
BRANCH   1  21
ATOM     21  C   LIG    1      -23.644  12.021  42.182  0.00  0.00    +0.067 C 
BRANCH  21  22
ATOM     22  C   LIG    1      -22.934  11.520  40.948  0.00  0.00    -0.045 A 
ATOM     23  C   LIG    1      -23.654  10.865  39.948  0.00  0.00    +0.004 A 
ATOM     24  C   LIG    1      -22.998  10.402  38.806  0.00  0.00    +0.000 A 
ATOM     25  C   LIG    1      -21.625  10.593  38.666  0.00  0.00    +0.000 A 
ATOM     26  C   LIG    1      -20.905  11.248  39.666  0.00  0.00    +0.000 A 
ATOM     27  C   LIG    1      -21.560  11.710  40.807  0.00  0.00    +0.004 A 
ENDBRANCH  21  22
ENDBRANCH   1  21
TORSDOF 8
ENDMDL
MODEL 5
REMARK VINA RESULT:      -6.8      6.907     12.823
REMARK  Name = 2974355
REMARK                            x       y       z     vdW  Elec       q    Type
REMARK                         _______ _______ _______ _____ _____    ______ ____
ROOT
ATOM      1  C   LIG    1      -22.922   7.890  34.576  0.00  0.00    +0.166 C 
ENDROOT
BRANCH   1   3
ATOM      2  O   LIG    1      -24.512   7.524  36.371  0.00  0.00    -0.274 OA
ATOM      3  C   LIG    1      -23.592   8.196  35.909  0.00  0.00    +0.234 C 
ATOM      4  N   LIG    1      -23.008   9.280  36.552  0.00  0.00    -0.311 N 
ATOM      5  H   LIG    1      -22.258   9.795  36.099  0.00  0.00    +0.149 HD
BRANCH   4   6
ATOM      6  C   LIG    1      -23.433   9.729  37.847  0.00  0.00    +0.073 C 
ATOM      7  C   LIG    1      -22.484  10.430  38.774  0.00  0.00    +0.024 C 
ATOM      8  C   LIG    1      -22.965   9.047  39.098  0.00  0.00    +0.024 C 
ENDBRANCH   4   6
ENDBRANCH   1   3
BRANCH   1   9
ATOM      9  N   LIG    1      -23.301   8.934  33.659  0.00  0.00    -0.269 N 
ATOM     10  H   LIG    1      -22.622   9.657  33.439  0.00  0.00    +0.153 HD
ATOM     11  C   LIG    1      -24.560   9.053  33.105  0.00  0.00    +0.401 C 
ATOM     12  O   LIG    1      -25.506   8.301  33.316  0.00  0.00    -0.226 OA
BRANCH  11  13
ATOM     13  O   LIG    1      -24.603  10.141  32.280  0.00  0.00    -0.446 OA
BRANCH  13  14
ATOM     14  C   LIG    1      -24.876   9.869  30.901  0.00  0.00    +0.269 C 
BRANCH  14  15
ATOM     15  C   LIG    1      -23.575   9.721  30.165  0.00  0.00    -0.010 A 
ATOM     16  C   LIG    1      -22.511  10.577  30.451  0.00  0.00    +0.007 A 
ATOM     17  C   LIG    1      -21.304  10.439  29.768  0.00  0.00    +0.000 A 
ATOM     18  C   LIG    1      -21.160   9.447  28.798  0.00  0.00    +0.000 A 
ATOM     19  C   LIG    1      -22.224   8.592  28.512  0.00  0.00    +0.000 A 
ATOM     20  C   LIG    1      -23.432   8.730  29.195  0.00  0.00    +0.007 A 
ENDBRANCH  14  15
ENDBRANCH  13  14
ENDBRANCH  11  13
ENDBRANCH   1   9
BRANCH   1  21
ATOM     21  C   LIG    1      -21.402   7.797  34.752  0.00  0.00    +0.067 C 
BRANCH  21  22
ATOM     22  C   LIG    1      -20.667   7.696  33.438  0.00  0.00    -0.045 A 
ATOM     23  C   LIG    1      -19.726   8.665  33.089  0.00  0.00    +0.004 A 
ATOM     24  C   LIG    1      -19.046   8.572  31.874  0.00  0.00    +0.000 A 
ATOM     25  C   LIG    1      -19.308   7.511  31.009  0.00  0.00    +0.000 A 
ATOM     26  C   LIG    1      -20.249   6.541  31.358  0.00  0.00    +0.000 A 
ATOM     27  C   LIG    1      -20.928   6.635  32.572  0.00  0.00    +0.004 A 
ENDBRANCH  21  22
ENDBRANCH   1  21
TORSDOF 8
ENDMDL
MODEL 6
REMARK VINA RESULT:      -6.7      9.237     14.125
REMARK  Name = 2974355
REMARK                            x       y       z     vdW  Elec       q    Type
REMARK                         _______ _______ _______ _____ _____    ______ ____
ROOT
ATOM      1  C   LIG    1      -23.522   8.331  31.956  0.00  0.00    +0.166 C 
ENDROOT
BRANCH   1   3
ATOM      2  O   LIG    1      -23.872  10.648  31.329  0.00  0.00    -0.274 OA
ATOM      3  C   LIG    1      -23.141   9.660  31.316  0.00  0.00    +0.234 C 
ATOM      4  N   LIG    1      -21.864   9.631  30.772  0.00  0.00    -0.311 N 
ATOM      5  H   LIG    1      -21.324   8.770  30.789  0.00  0.00    +0.149 HD
BRANCH   4   6
ATOM      6  C   LIG    1      -21.262  10.779  30.157  0.00  0.00    +0.073 C 
ATOM      7  C   LIG    1      -20.783  10.735  28.735  0.00  0.00    +0.024 C 
ATOM      8  C   LIG    1      -19.792  10.819  29.859  0.00  0.00    +0.024 C 
ENDBRANCH   4   6
ENDBRANCH   1   3
BRANCH   1   9
ATOM      9  N   LIG    1      -23.936   7.449  30.896  0.00  0.00    -0.269 N 
ATOM     10  H   LIG    1      -23.250   6.816  30.495  0.00  0.00    +0.153 HD
ATOM     11  C   LIG    1      -25.200   7.456  30.338  0.00  0.00    +0.401 C 
ATOM     12  O   LIG    1      -26.120   8.198  30.665  0.00  0.00    -0.226 OA
BRANCH  11  13
ATOM     13  O   LIG    1      -25.279   6.506  29.358  0.00  0.00    -0.446 OA
BRANCH  13  14
ATOM     14  C   LIG    1      -24.032   5.960  28.916  0.00  0.00    +0.269 C 
BRANCH  14  15
ATOM     15  C   LIG    1      -23.736   6.469  27.536  0.00  0.00    -0.010 A 
ATOM     16  C   LIG    1      -23.575   5.572  26.480  0.00  0.00    +0.007 A 
ATOM     17  C   LIG    1      -23.301   6.046  25.198  0.00  0.00    +0.000 A 
ATOM     18  C   LIG    1      -23.186   7.417  24.970  0.00  0.00    +0.000 A 
ATOM     19  C   LIG    1      -23.347   8.315  26.026  0.00  0.00    +0.000 A 
ATOM     20  C   LIG    1      -23.621   7.840  27.309  0.00  0.00    +0.007 A 
ENDBRANCH  14  15
ENDBRANCH  13  14
ENDBRANCH  11  13
ENDBRANCH   1   9
BRANCH   1  21
ATOM     21  C   LIG    1      -22.341   7.764  32.753  0.00  0.00    +0.067 C 
BRANCH  21  22
ATOM     22  C   LIG    1      -22.451   8.035  34.233  0.00  0.00    -0.045 A 
ATOM     23  C   LIG    1      -21.336   8.477  34.946  0.00  0.00    +0.004 A 
ATOM     24  C   LIG    1      -21.437   8.729  36.314  0.00  0.00    +0.000 A 
ATOM     25  C   LIG    1      -22.653   8.538  36.970  0.00  0.00    +0.000 A 
ATOM     26  C   LIG    1      -23.768   8.096  36.257  0.00  0.00    +0.000 A 
ATOM     27  C   LIG    1      -23.667   7.844  34.889  0.00  0.00    +0.004 A 
ENDBRANCH  21  22
ENDBRANCH   1  21
TORSDOF 8
ENDMDL
MODEL 7
REMARK VINA RESULT:      -6.6      4.288      6.104
REMARK  Name = 2974355
REMARK                            x       y       z     vdW  Elec       q    Type
REMARK                         _______ _______ _______ _____ _____    ______ ____
ROOT
ATOM      1  C   LIG    1      -25.155  14.618  42.486  0.00  0.00    +0.166 C 
ENDROOT
BRANCH   1   3
ATOM      2  O   LIG    1      -22.748  14.714  42.769  0.00  0.00    -0.274 OA
ATOM      3  C   LIG    1      -23.815  15.317  42.677  0.00  0.00    +0.234 C 
ATOM      4  N   LIG    1      -23.942  16.700  42.682  0.00  0.00    -0.311 N 
ATOM      5  H   LIG    1      -24.862  17.125  42.613  0.00  0.00    +0.149 HD
BRANCH   4   6
ATOM      6  C   LIG    1      -22.813  17.577  42.797  0.00  0.00    +0.073 C 
ATOM      7  C   LIG    1      -22.970  19.064  42.667  0.00  0.00    +0.024 C 
ATOM      8  C   LIG    1      -22.255  18.288  41.600  0.00  0.00    +0.024 C 
ENDBRANCH   4   6
ENDBRANCH   1   3
BRANCH   1   9
ATOM      9  N   LIG    1      -24.878  13.275  42.045  0.00  0.00    -0.269 N 
ATOM     10  H   LIG    1      -23.956  12.887  42.223  0.00  0.00    +0.153 HD
ATOM     11  C   LIG    1      -25.771  12.499  41.333  0.00  0.00    +0.401 C 
ATOM     12  O   LIG    1      -26.896  12.842  40.986  0.00  0.00    -0.226 OA
BRANCH  11  13
ATOM     13  O   LIG    1      -25.214  11.280  41.064  0.00  0.00    -0.446 OA
BRANCH  13  14
ATOM     14  C   LIG    1      -25.156  10.911  39.682  0.00  0.00    +0.269 C 
BRANCH  14  15
ATOM     15  C   LIG    1      -23.719  10.776  39.271  0.00  0.00    -0.010 A 
ATOM     16  C   LIG    1      -22.703  11.137  40.156  0.00  0.00    +0.007 A 
ATOM     17  C   LIG    1      -21.368  11.011  39.775  0.00  0.00    +0.000 A 
ATOM     18  C   LIG    1      -21.048  10.523  38.508  0.00  0.00    +0.000 A 
ATOM     19  C   LIG    1      -22.063  10.162  37.622  0.00  0.00    +0.000 A 
ATOM     20  C   LIG    1      -23.399  10.289  38.004  0.00  0.00    +0.007 A 
ENDBRANCH  14  15
ENDBRANCH  13  14
ENDBRANCH  11  13
ENDBRANCH   1   9
BRANCH   1  21
ATOM     21  C   LIG    1      -25.962  14.645  43.789  0.00  0.00    +0.067 C 
BRANCH  21  22
ATOM     22  C   LIG    1      -27.278  15.370  43.647  0.00  0.00    -0.045 A 
ATOM     23  C   LIG    1      -27.300  16.761  43.551  0.00  0.00    +0.004 A 
ATOM     24  C   LIG    1      -28.517  17.432  43.418  0.00  0.00    +0.000 A 
ATOM     25  C   LIG    1      -29.709  16.711  43.382  0.00  0.00    +0.000 A 
ATOM     26  C   LIG    1      -29.687  15.320  43.478  0.00  0.00    +0.000 A 
ATOM     27  C   LIG    1      -28.471  14.649  43.611  0.00  0.00    +0.004 A 
ENDBRANCH  21  22
ENDBRANCH   1  21
TORSDOF 8
ENDMDL
MODEL 8
REMARK VINA RESULT:      -6.5     12.528     15.868
REMARK  Name = 2974355
REMARK                            x       y       z     vdW  Elec       q    Type
REMARK                         _______ _______ _______ _____ _____    ______ ____
ROOT
ATOM      1  C   LIG    1      -22.737   8.412  26.715  0.00  0.00    +0.166 C 
ENDROOT
BRANCH   1   3
ATOM      2  O   LIG    1      -24.346   8.140  24.921  0.00  0.00    -0.274 OA
ATOM      3  C   LIG    1      -23.246   7.858  25.391  0.00  0.00    +0.234 C 
ATOM      4  N   LIG    1      -22.306   7.048  24.766  0.00  0.00    -0.311 N 
ATOM      5  H   LIG    1      -21.421   6.851  25.225  0.00  0.00    +0.149 HD
BRANCH   4   6
ATOM      6  C   LIG    1      -22.535   6.450  23.482  0.00  0.00    +0.073 C 
ATOM      7  C   LIG    1      -22.154   5.023  23.213  0.00  0.00    +0.024 C 
ATOM      8  C   LIG    1      -21.398   6.140  22.555  0.00  0.00    +0.024 C 
ENDBRANCH   4   6
ENDBRANCH   1   3
BRANCH   1   9
ATOM      9  N   LIG    1      -23.362   7.652  27.766  0.00  0.00    -0.269 N 
ATOM     10  H   LIG    1      -23.065   6.693  27.914  0.00  0.00    +0.153 HD
ATOM     11  C   LIG    1      -24.397   8.127  28.548  0.00  0.00    +0.401 C 
ATOM     12  O   LIG    1      -24.911   9.237  28.454  0.00  0.00    -0.226 OA
BRANCH  11  13
ATOM     13  O   LIG    1      -24.772   7.172  29.451  0.00  0.00    -0.446 OA
BRANCH  13  14
ATOM     14  C   LIG    1      -23.717   6.355  29.970  0.00  0.00    +0.269 C 
BRANCH  14  15
ATOM     15  C   LIG    1      -22.855   7.187  30.874  0.00  0.00    -0.010 A 
ATOM     16  C   LIG    1      -23.439   8.118  31.733  0.00  0.00    +0.007 A 
ATOM     17  C   LIG    1      -22.637   8.890  32.574  0.00  0.00    +0.000 A 
ATOM     18  C   LIG    1      -21.251   8.731  32.556  0.00  0.00    +0.000 A 
ATOM     19  C   LIG    1      -20.667   7.800  31.697  0.00  0.00    +0.000 A 
ATOM     20  C   LIG    1      -21.469   7.028  30.856  0.00  0.00    +0.007 A 
ENDBRANCH  14  15
ENDBRANCH  13  14
ENDBRANCH  11  13
ENDBRANCH   1   9
BRANCH   1  21
ATOM     21  C   LIG    1      -21.206   8.331  26.774  0.00  0.00    +0.067 C 
BRANCH  21  22
ATOM     22  C   LIG    1      -20.618   9.185  27.870  0.00  0.00    -0.045 A 
ATOM     23  C   LIG    1      -21.420  10.110  28.539  0.00  0.00    +0.004 A 
ATOM     24  C   LIG    1      -20.877  10.900  29.553  0.00  0.00    +0.000 A 
ATOM     25  C   LIG    1      -19.533  10.765  29.897  0.00  0.00    +0.000 A 
ATOM     26  C   LIG    1      -18.731   9.839  29.228  0.00  0.00    +0.000 A 
ATOM     27  C   LIG    1      -19.274   9.050  28.214  0.00  0.00    +0.004 A 
ENDBRANCH  21  22
ENDBRANCH   1  21
TORSDOF 8
ENDMDL
MODEL 9
REMARK VINA RESULT:      -6.5     11.316     14.957
REMARK  Name = 2974355
REMARK                            x       y       z     vdW  Elec       q    Type
REMARK                         _______ _______ _______ _____ _____    ______ ____
ROOT
ATOM      1  C   LIG    1      -22.880   8.551  27.472  0.00  0.00    +0.166 C 
ENDROOT
BRANCH   1   3
ATOM      2  O   LIG    1      -24.030   8.201  25.365  0.00  0.00    -0.274 OA
ATOM      3  C   LIG    1      -23.385   7.725  26.297  0.00  0.00    +0.234 C 
ATOM      4  N   LIG    1      -22.987   6.396  26.382  0.00  0.00    -0.311 N 
ATOM      5  H   LIG    1      -22.465   6.074  27.192  0.00  0.00    +0.149 HD
BRANCH   4   6
ATOM      6  C   LIG    1      -23.298   5.432  25.367  0.00  0.00    +0.073 C 
ATOM      7  C   LIG    1      -22.675   4.066  25.378  0.00  0.00    +0.024 C 
ATOM      8  C   LIG    1      -22.294   5.057  24.317  0.00  0.00    +0.024 C 
ENDBRANCH   4   6
ENDBRANCH   1   3
BRANCH   1   9
ATOM      9  N   LIG    1      -24.023   8.882  28.285  0.00  0.00    -0.269 N 
ATOM     10  H   LIG    1      -24.309   9.854  28.348  0.00  0.00    +0.153 HD
ATOM     11  C   LIG    1      -24.720   7.961  29.042  0.00  0.00    +0.401 C 
ATOM     12  O   LIG    1      -24.466   6.764  29.124  0.00  0.00    -0.226 OA
BRANCH  11  13
ATOM     13  O   LIG    1      -25.747   8.583  29.698  0.00  0.00    -0.446 OA
BRANCH  13  14
ATOM     14  C   LIG    1      -25.383   9.714  30.496  0.00  0.00    +0.269 C 
BRANCH  14  15
ATOM     15  C   LIG    1      -24.651   9.237  31.716  0.00  0.00    -0.010 A 
ATOM     16  C   LIG    1      -25.362   8.725  32.801  0.00  0.00    +0.007 A 
ATOM     17  C   LIG    1      -24.681   8.282  33.934  0.00  0.00    +0.000 A 
ATOM     18  C   LIG    1      -23.289   8.352  33.984  0.00  0.00    +0.000 A 
ATOM     19  C   LIG    1      -22.577   8.865  32.899  0.00  0.00    +0.000 A 
ATOM     20  C   LIG    1      -23.259   9.308  31.765  0.00  0.00    +0.007 A 
ENDBRANCH  14  15
ENDBRANCH  13  14
ENDBRANCH  11  13
ENDBRANCH   1   9
BRANCH   1  21
ATOM     21  C   LIG    1      -21.819   7.771  28.257  0.00  0.00    +0.067 C 
BRANCH  21  22
ATOM     22  C   LIG    1      -20.952   8.663  29.111  0.00  0.00    -0.045 A 
ATOM     23  C   LIG    1      -20.172   8.110  30.128  0.00  0.00    +0.004 A 
ATOM     24  C   LIG    1      -19.369   8.934  30.918  0.00  0.00    +0.000 A 
ATOM     25  C   LIG    1      -19.347  10.309  30.691  0.00  0.00    +0.000 A 
ATOM     26  C   LIG    1      -20.127  10.862  29.675  0.00  0.00    +0.000 A 
ATOM     27  C   LIG    1      -20.929  10.039  28.885  0.00  0.00    +0.004 A 
ENDBRANCH  21  22
ENDBRANCH   1  21
TORSDOF 8
ENDMDL
MODEL 10
REMARK VINA RESULT:      -6.4      8.125     13.770
REMARK  Name = 2974355
REMARK                            x       y       z     vdW  Elec       q    Type
REMARK                         _______ _______ _______ _____ _____    ______ ____
ROOT
ATOM      1  C   LIG    1      -20.817   8.530  33.517  0.00  0.00    +0.166 C 
ENDROOT
BRANCH   1   3
ATOM      2  O   LIG    1      -20.012   7.852  35.702  0.00  0.00    -0.274 OA
ATOM      3  C   LIG    1      -20.889   8.394  35.032  0.00  0.00    +0.234 C 
ATOM      4  N   LIG    1      -22.025   8.995  35.559  0.00  0.00    -0.311 N 
ATOM      5  H   LIG    1      -22.712   9.412  34.938  0.00  0.00    +0.149 HD
BRANCH   4   6
ATOM      6  C   LIG    1      -22.289   9.041  36.968  0.00  0.00    +0.073 C 
ATOM      7  C   LIG    1      -23.632   8.656  37.518  0.00  0.00    +0.024 C 
ATOM      8  C   LIG    1      -23.188  10.089  37.556  0.00  0.00    +0.024 C 
ENDBRANCH   4   6
ENDBRANCH   1   3
BRANCH   1   9
ATOM      9  N   LIG    1      -22.147   8.830  33.052  0.00  0.00    -0.269 N 
ATOM     10  H   LIG    1      -22.582   9.698  33.352  0.00  0.00    +0.153 HD
ATOM     11  C   LIG    1      -22.901   7.976  32.271  0.00  0.00    +0.401 C 
ATOM     12  O   LIG    1      -22.546   6.870  31.877  0.00  0.00    -0.226 OA
BRANCH  11  13
ATOM     13  O   LIG    1      -24.113   8.545  31.998  0.00  0.00    -0.446 OA
BRANCH  13  14
ATOM     14  C   LIG    1      -24.084   9.697  31.149  0.00  0.00    +0.269 C 
BRANCH  14  15
ATOM     15  C   LIG    1      -23.613   9.288  29.783  0.00  0.00    -0.010 A 
ATOM     16  C   LIG    1      -24.495   8.667  28.898  0.00  0.00    +0.007 A 
ATOM     17  C   LIG    1      -24.057   8.287  27.630  0.00  0.00    +0.000 A 
ATOM     18  C   LIG    1      -22.738   8.527  27.246  0.00  0.00    +0.000 A 
ATOM     19  C   LIG    1      -21.856   9.147  28.132  0.00  0.00    +0.000 A 
ATOM     20  C   LIG    1      -22.294   9.527  29.401  0.00  0.00    +0.007 A 
ENDBRANCH  14  15
ENDBRANCH  13  14
ENDBRANCH  11  13
ENDBRANCH   1   9
BRANCH   1  21
ATOM     21  C   LIG    1      -19.809   9.617  33.125  0.00  0.00    +0.067 C 
BRANCH  21  22
ATOM     22  C   LIG    1      -19.269   9.437  31.728  0.00  0.00    -0.045 A 
ATOM     23  C   LIG    1      -18.798   8.189  31.318  0.00  0.00    +0.004 A 
ATOM     24  C   LIG    1      -18.299   8.022  30.025  0.00  0.00    +0.000 A 
ATOM     25  C   LIG    1      -18.272   9.101  29.144  0.00  0.00    +0.000 A 
ATOM     26  C   LIG    1      -18.744  10.349  29.554  0.00  0.00    +0.000 A 
ATOM     27  C   LIG    1      -19.241  10.516  30.846  0.00  0.00    +0.004 A 
ENDBRANCH  21  22
ENDBRANCH   1  21
TORSDOF 8
ENDMDL
