MODEL 1
REMARK VINA RESULT:      -6.9      0.000      0.000
REMARK  Name = 6915837
REMARK                            x       y       z     vdW  Elec       q    Type
REMARK                         _______ _______ _______ _____ _____    ______ ____
ROOT
ATOM      1  C   LIG    1      -23.670   7.412  27.565  0.00  0.00    +0.166 C 
ENDROOT
BRANCH   1   4
ATOM      2  N   LIG    1      -21.589   8.613  27.820  0.00  0.00    -0.304 N 
ATOM      3  H   LIG    1      -22.022   9.258  27.165  0.00  0.00    +0.149 HD
ATOM      4  C   LIG    1      -22.296   7.487  28.221  0.00  0.00    +0.234 C 
ATOM      5  O   LIG    1      -21.868   6.620  28.979  0.00  0.00    -0.274 OA
BRANCH   2   6
ATOM      6  C   LIG    1      -20.242   8.900  28.256  0.00  0.00    +0.139 C 
ATOM      7  C   LIG    1      -19.256   8.865  27.102  0.00  0.00    +0.036 C 
BRANCH   6   8
ATOM      8  C   LIG    1      -20.259  10.274  28.905  0.00  0.00    +0.184 C 
ATOM      9  O   LIG    1      -21.098  11.130  28.619  0.00  0.00    -0.293 OA
BRANCH   8  11
ATOM     10  F   LIG    1      -19.628  10.546  31.170  0.00  0.00    -0.241 F 
ATOM     11  C   LIG    1      -19.160  10.565  29.894  0.00  0.00    +0.289 C 
ENDBRANCH   8  11
ENDBRANCH   6   8
ENDBRANCH   2   6
ENDBRANCH   1   4
BRANCH   1  12
ATOM     12  N   LIG    1      -24.546   8.280  28.311  0.00  0.00    -0.269 N 
ATOM     13  H   LIG    1      -24.602   9.259  28.048  0.00  0.00    +0.153 HD
ATOM     14  C   LIG    1      -25.342   7.853  29.356  0.00  0.00    +0.401 C 
ATOM     15  O   LIG    1      -25.410   6.704  29.781  0.00  0.00    -0.226 OA
BRANCH  14  16
ATOM     16  O   LIG    1      -26.054   8.907  29.856  0.00  0.00    -0.446 OA
BRANCH  16  17
ATOM     17  C   LIG    1      -25.282   9.954  30.457  0.00  0.00    +0.269 C 
BRANCH  17  18
ATOM     18  C   LIG    1      -24.436   9.448  31.576  0.00  0.00    -0.010 A 
ATOM     19  C   LIG    1      -25.031   9.042  32.771  0.00  0.00    +0.007 A 
ATOM     20  C   LIG    1      -24.239   8.570  33.818  0.00  0.00    +0.000 A 
ATOM     21  C   LIG    1      -22.853   8.505  33.671  0.00  0.00    +0.000 A 
ATOM     22  C   LIG    1      -22.259   8.911  32.476  0.00  0.00    +0.000 A 
ATOM     23  C   LIG    1      -23.051   9.383  31.429  0.00  0.00    +0.007 A 
ENDBRANCH  17  18
ENDBRANCH  16  17
ENDBRANCH  14  16
ENDBRANCH   1  12
BRANCH   1  24
ATOM     24  C   LIG    1      -23.578   7.812  26.088  0.00  0.00    +0.067 C 
BRANCH  24  25
ATOM     25  C   LIG    1      -23.155   6.670  25.198  0.00  0.00    -0.045 A 
ATOM     26  C   LIG    1      -22.656   6.940  23.934  0.00  0.00    +0.004 A 
ATOM     27  C   LIG    1      -22.266   5.883  23.112  0.00  0.00    +0.000 A 
ATOM     28  C   LIG    1      -22.378   4.569  23.565  0.00  0.00    +0.000 A 
ATOM     29  C   LIG    1      -22.881   4.311  24.840  0.00  0.00    +0.000 A 
ATOM     30  C   LIG    1      -23.272   5.368  25.662  0.00  0.00    +0.004 A 
ENDBRANCH  24  25
ENDBRANCH   1  24
TORSDOF 10
ENDMDL
MODEL 2
REMARK VINA RESULT:      -6.8     11.037     15.469
REMARK  Name = 6915837
REMARK                            x       y       z     vdW  Elec       q    Type
REMARK                         _______ _______ _______ _____ _____    ______ ____
ROOT
ATOM      1  C   LIG    1      -25.407  11.660  42.038  0.00  0.00    +0.166 C 
ENDROOT
BRANCH   1   4
ATOM      2  N   LIG    1      -23.759  10.936  40.426  0.00  0.00    -0.304 N 
ATOM      3  H   LIG    1      -23.124  11.032  41.214  0.00  0.00    +0.149 HD
ATOM      4  C   LIG    1      -25.106  11.222  40.610  0.00  0.00    +0.234 C 
ATOM      5  O   LIG    1      -25.961  11.177  39.729  0.00  0.00    -0.274 OA
BRANCH   2   6
ATOM      6  C   LIG    1      -23.197  10.546  39.153  0.00  0.00    +0.139 C 
ATOM      7  C   LIG    1      -21.745  10.968  39.024  0.00  0.00    +0.036 C 
BRANCH   6   8
ATOM      8  C   LIG    1      -23.328   9.035  39.045  0.00  0.00    +0.184 C 
ATOM      9  O   LIG    1      -23.023   8.278  39.967  0.00  0.00    -0.293 OA
BRANCH   8  11
ATOM     10  F   LIG    1      -22.794   7.915  37.030  0.00  0.00    -0.241 F 
ATOM     11  C   LIG    1      -23.810   8.495  37.723  0.00  0.00    +0.289 C 
ENDBRANCH   8  11
ENDBRANCH   6   8
ENDBRANCH   2   6
ENDBRANCH   1   4
BRANCH   1  12
ATOM     12  N   LIG    1      -24.699  10.763  42.916  0.00  0.00    -0.269 N 
ATOM     13  H   LIG    1      -23.879  10.281  42.562  0.00  0.00    +0.153 HD
ATOM     14  C   LIG    1      -25.054  10.534  44.231  0.00  0.00    +0.401 C 
ATOM     15  O   LIG    1      -26.000  11.052  44.816  0.00  0.00    -0.226 OA
BRANCH  14  16
ATOM     16  O   LIG    1      -24.192   9.637  44.795  0.00  0.00    -0.446 OA
BRANCH  16  17
ATOM     17  C   LIG    1      -24.719   8.854  45.872  0.00  0.00    +0.269 C 
BRANCH  17  18
ATOM     18  C   LIG    1      -24.260   7.437  45.807  0.00  0.00    -0.010 A 
ATOM     19  C   LIG    1      -25.068   6.419  46.313  0.00  0.00    +0.007 A 
ATOM     20  C   LIG    1      -24.638   5.093  46.252  0.00  0.00    +0.000 A 
ATOM     21  C   LIG    1      -23.400   4.786  45.686  0.00  0.00    +0.000 A 
ATOM     22  C   LIG    1      -22.593   5.804  45.180  0.00  0.00    +0.000 A 
ATOM     23  C   LIG    1      -23.023   7.131  45.241  0.00  0.00    +0.007 A 
ENDBRANCH  17  18
ENDBRANCH  16  17
ENDBRANCH  14  16
ENDBRANCH   1  12
BRANCH   1  24
ATOM     24  C   LIG    1      -24.994  13.122  42.247  0.00  0.00    +0.067 C 
BRANCH  24  25
ATOM     25  C   LIG    1      -26.136  13.991  42.711  0.00  0.00    -0.045 A 
ATOM     26  C   LIG    1      -25.889  15.309  43.060  0.00  0.00    +0.004 A 
ATOM     27  C   LIG    1      -26.946  16.112  43.489  0.00  0.00    +0.000 A 
ATOM     28  C   LIG    1      -28.235  15.587  43.563  0.00  0.00    +0.000 A 
ATOM     29  C   LIG    1      -28.469  14.259  43.209  0.00  0.00    +0.000 A 
ATOM     30  C   LIG    1      -27.413  13.455  42.780  0.00  0.00    +0.004 A 
ENDBRANCH  24  25
ENDBRANCH   1  24
TORSDOF 10
ENDMDL
MODEL 3
REMARK VINA RESULT:      -6.7      1.818      6.858
REMARK  Name = 6915837
REMARK                            x       y       z     vdW  Elec       q    Type
REMARK                         _______ _______ _______ _____ _____    ______ ____
ROOT
ATOM      1  C   LIG    1      -23.400   8.346  31.686  0.00  0.00    +0.166 C 
ENDROOT
BRANCH   1   4
ATOM      2  N   LIG    1      -21.476   9.486  30.772  0.00  0.00    -0.304 N 
ATOM      3  H   LIG    1      -21.041   8.571  30.865  0.00  0.00    +0.149 HD
ATOM      4  C   LIG    1      -22.800   9.644  31.157  0.00  0.00    +0.234 C 
ATOM      5  O   LIG    1      -23.421  10.703  31.124  0.00  0.00    -0.274 OA
BRANCH   2   6
ATOM      6  C   LIG    1      -20.657  10.570  30.280  0.00  0.00    +0.139 C 
ATOM      7  C   LIG    1      -19.226  10.468  30.775  0.00  0.00    +0.036 C 
BRANCH   6   8
ATOM      8  C   LIG    1      -20.704  10.520  28.762  0.00  0.00    +0.184 C 
ATOM      9  O   LIG    1      -21.399  11.289  28.096  0.00  0.00    -0.293 OA
BRANCH   8  11
ATOM     10  F   LIG    1      -20.682   8.428  27.654  0.00  0.00    -0.241 F 
ATOM     11  C   LIG    1      -19.889   9.439  28.099  0.00  0.00    +0.289 C 
ENDBRANCH   8  11
ENDBRANCH   6   8
ENDBRANCH   2   6
ENDBRANCH   1   4
BRANCH   1  12
ATOM     12  N   LIG    1      -23.849   7.588  30.545  0.00  0.00    -0.269 N 
ATOM     13  H   LIG    1      -23.155   7.221  29.901  0.00  0.00    +0.153 HD
ATOM     14  C   LIG    1      -25.175   7.306  30.285  0.00  0.00    +0.401 C 
ATOM     15  O   LIG    1      -26.129   7.654  30.973  0.00  0.00    -0.226 OA
BRANCH  14  16
ATOM     16  O   LIG    1      -25.275   6.574  29.135  0.00  0.00    -0.446 OA
BRANCH  16  17
ATOM     17  C   LIG    1      -24.070   5.944  28.687  0.00  0.00    +0.269 C 
BRANCH  17  18
ATOM     18  C   LIG    1      -23.717   6.345  27.295  0.00  0.00    -0.010 A 
ATOM     19  C   LIG    1      -23.363   5.374  26.358  0.00  0.00    +0.007 A 
ATOM     20  C   LIG    1      -23.033   5.749  25.055  0.00  0.00    +0.000 A 
ATOM     21  C   LIG    1      -23.056   7.095  24.690  0.00  0.00    +0.000 A 
ATOM     22  C   LIG    1      -23.410   8.066  25.627  0.00  0.00    +0.000 A 
ATOM     23  C   LIG    1      -23.741   7.691  26.929  0.00  0.00    +0.007 A 
ENDBRANCH  17  18
ENDBRANCH  16  17
ENDBRANCH  14  16
ENDBRANCH   1  12
BRANCH   1  24
ATOM     24  C   LIG    1      -22.364   7.581  32.519  0.00  0.00    +0.067 C 
BRANCH  24  25
ATOM     25  C   LIG    1      -22.327   8.028  33.959  0.00  0.00    -0.045 A 
ATOM     26  C   LIG    1      -23.491   7.997  34.711  0.00  0.00    +0.004 A 
ATOM     27  C   LIG    1      -23.456   8.411  36.043  0.00  0.00    +0.000 A 
ATOM     28  C   LIG    1      -22.259   8.850  36.605  0.00  0.00    +0.000 A 
ATOM     29  C   LIG    1      -21.094   8.876  35.837  0.00  0.00    +0.000 A 
ATOM     30  C   LIG    1      -21.129   8.463  34.505  0.00  0.00    +0.004 A 
ENDBRANCH  24  25
ENDBRANCH   1  24
TORSDOF 10
ENDMDL
MODEL 4
REMARK VINA RESULT:      -6.7     11.970     15.788
REMARK  Name = 6915837
REMARK                            x       y       z     vdW  Elec       q    Type
REMARK                         _______ _______ _______ _____ _____    ______ ____
ROOT
ATOM      1  C   LIG    1      -24.413  11.270  42.603  0.00  0.00    +0.166 C 
ENDROOT
BRANCH   1   4
ATOM      2  N   LIG    1      -24.502   9.838  44.547  0.00  0.00    -0.304 N 
ATOM      3  H   LIG    1      -25.472   9.721  44.266  0.00  0.00    +0.149 HD
ATOM      4  C   LIG    1      -23.676  10.655  43.787  0.00  0.00    +0.234 C 
ATOM      5  O   LIG    1      -22.499  10.901  44.044  0.00  0.00    -0.274 OA
BRANCH   2   6
ATOM      6  C   LIG    1      -24.067   9.170  45.753  0.00  0.00    +0.139 C 
ATOM      7  C   LIG    1      -24.705   9.771  46.993  0.00  0.00    +0.036 C 
BRANCH   6   8
ATOM      8  C   LIG    1      -24.437   7.703  45.616  0.00  0.00    +0.184 C 
ATOM      9  O   LIG    1      -24.435   7.119  44.532  0.00  0.00    -0.293 OA
BRANCH   8  11
ATOM     10  F   LIG    1      -25.619   5.902  46.598  0.00  0.00    -0.241 F 
ATOM     11  C   LIG    1      -24.860   6.995  46.878  0.00  0.00    +0.289 C 
ENDBRANCH   8  11
ENDBRANCH   6   8
ENDBRANCH   2   6
ENDBRANCH   1   4
BRANCH   1  12
ATOM     12  N   LIG    1      -25.467  12.093  43.140  0.00  0.00    -0.269 N 
ATOM     13  H   LIG    1      -25.427  12.359  44.119  0.00  0.00    +0.153 HD
ATOM     14  C   LIG    1      -26.526  12.569  42.393  0.00  0.00    +0.401 C 
ATOM     15  O   LIG    1      -26.710  12.360  41.198  0.00  0.00    -0.226 OA
BRANCH  14  16
ATOM     16  O   LIG    1      -27.353  13.316  43.184  0.00  0.00    -0.446 OA
BRANCH  16  17
ATOM     17  C   LIG    1      -26.887  14.631  43.510  0.00  0.00    +0.269 C 
BRANCH  17  18
ATOM     18  C   LIG    1      -27.988  15.636  43.473  0.00  0.00    -0.010 A 
ATOM     19  C   LIG    1      -29.317  15.215  43.490  0.00  0.00    +0.007 A 
ATOM     20  C   LIG    1      -30.347  16.156  43.454  0.00  0.00    +0.000 A 
ATOM     21  C   LIG    1      -30.047  17.517  43.401  0.00  0.00    +0.000 A 
ATOM     22  C   LIG    1      -28.717  17.938  43.384  0.00  0.00    +0.000 A 
ATOM     23  C   LIG    1      -27.687  16.997  43.420  0.00  0.00    +0.007 A 
ENDBRANCH  17  18
ENDBRANCH  16  17
ENDBRANCH  14  16
ENDBRANCH   1  12
BRANCH   1  24
ATOM     24  C   LIG    1      -23.442  12.070  41.727  0.00  0.00    +0.067 C 
BRANCH  24  25
ATOM     25  C   LIG    1      -23.085  11.354  40.448  0.00  0.00    -0.045 A 
ATOM     26  C   LIG    1      -21.762  11.314  40.037  0.00  0.00    +0.004 A 
ATOM     27  C   LIG    1      -21.433  10.653  38.854  0.00  0.00    +0.000 A 
ATOM     28  C   LIG    1      -22.430  10.038  38.098  0.00  0.00    +0.000 A 
ATOM     29  C   LIG    1      -23.758  10.084  38.524  0.00  0.00    +0.000 A 
ATOM     30  C   LIG    1      -24.088  10.747  39.706  0.00  0.00    +0.004 A 
ENDBRANCH  24  25
ENDBRANCH   1  24
TORSDOF 10
ENDMDL
MODEL 5
REMARK VINA RESULT:      -6.6      2.011      2.750
REMARK  Name = 6915837
REMARK                            x       y       z     vdW  Elec       q    Type
REMARK                         _______ _______ _______ _____ _____    ______ ____
ROOT
ATOM      1  C   LIG    1      -23.359   8.075  27.243  0.00  0.00    +0.166 C 
ENDROOT
BRANCH   1   4
ATOM      2  N   LIG    1      -20.963   8.198  26.955  0.00  0.00    -0.304 N 
ATOM      3  H   LIG    1      -21.096   7.308  26.483  0.00  0.00    +0.149 HD
ATOM      4  C   LIG    1      -22.070   8.854  27.478  0.00  0.00    +0.234 C 
ATOM      5  O   LIG    1      -22.032   9.914  28.097  0.00  0.00    -0.274 OA
BRANCH   2   6
ATOM      6  C   LIG    1      -19.612   8.696  27.082  0.00  0.00    +0.139 C 
ATOM      7  C   LIG    1      -18.905   8.108  28.290  0.00  0.00    +0.036 C 
BRANCH   6   8
ATOM      8  C   LIG    1      -18.875   8.338  25.802  0.00  0.00    +0.184 C 
ATOM      9  O   LIG    1      -17.881   8.953  25.417  0.00  0.00    -0.293 OA
BRANCH   8  11
ATOM     10  F   LIG    1      -18.756   7.029  23.833  0.00  0.00    -0.241 F 
ATOM     11  C   LIG    1      -19.454   7.210  24.987  0.00  0.00    +0.289 C 
ENDBRANCH   8  11
ENDBRANCH   6   8
ENDBRANCH   2   6
ENDBRANCH   1   4
BRANCH   1  12
ATOM     12  N   LIG    1      -24.363   8.643  28.106  0.00  0.00    -0.269 N 
ATOM     13  H   LIG    1      -24.598   9.625  27.999  0.00  0.00    +0.153 HD
ATOM     14  C   LIG    1      -25.051   7.923  29.062  0.00  0.00    +0.401 C 
ATOM     15  O   LIG    1      -24.904   6.729  29.302  0.00  0.00    -0.226 OA
BRANCH  14  16
ATOM     16  O   LIG    1      -25.931   8.741  29.714  0.00  0.00    -0.446 OA
BRANCH  16  17
ATOM     17  C   LIG    1      -25.351   9.819  30.457  0.00  0.00    +0.269 C 
BRANCH  17  18
ATOM     18  C   LIG    1      -24.565   9.329  31.626  0.00  0.00    -0.010 A 
ATOM     19  C   LIG    1      -23.172   9.310  31.571  0.00  0.00    +0.007 A 
ATOM     20  C   LIG    1      -22.437   8.851  32.665  0.00  0.00    +0.000 A 
ATOM     21  C   LIG    1      -23.097   8.410  33.812  0.00  0.00    +0.000 A 
ATOM     22  C   LIG    1      -24.490   8.429  33.867  0.00  0.00    +0.000 A 
ATOM     23  C   LIG    1      -25.225   8.888  32.773  0.00  0.00    +0.007 A 
ENDBRANCH  17  18
ENDBRANCH  16  17
ENDBRANCH  14  16
ENDBRANCH   1  12
BRANCH   1  24
ATOM     24  C   LIG    1      -23.760   8.141  25.764  0.00  0.00    +0.067 C 
BRANCH  24  25
ATOM     25  C   LIG    1      -23.253   6.963  24.969  0.00  0.00    -0.045 A 
ATOM     26  C   LIG    1      -23.231   5.707  25.553  0.00  0.00    +0.004 A 
ATOM     27  C   LIG    1      -22.761   4.618  24.817  0.00  0.00    +0.000 A 
ATOM     28  C   LIG    1      -22.322   4.800  23.506  0.00  0.00    +0.000 A 
ATOM     29  C   LIG    1      -22.351   6.071  22.930  0.00  0.00    +0.000 A 
ATOM     30  C   LIG    1      -22.819   7.159  23.666  0.00  0.00    +0.004 A 
ENDBRANCH  24  25
ENDBRANCH   1  24
TORSDOF 10
ENDMDL
MODEL 6
REMARK VINA RESULT:      -6.6      1.178      1.807
REMARK  Name = 6915837
REMARK                            x       y       z     vdW  Elec       q    Type
REMARK                         _______ _______ _______ _____ _____    ______ ____
ROOT
ATOM      1  C   LIG    1      -23.355   7.948  27.396  0.00  0.00    +0.166 C 
ENDROOT
BRANCH   1   4
ATOM      2  N   LIG    1      -21.720   8.753  28.983  0.00  0.00    -0.304 N 
ATOM      3  H   LIG    1      -22.378   8.382  29.664  0.00  0.00    +0.149 HD
ATOM      4  C   LIG    1      -22.017   8.641  27.631  0.00  0.00    +0.234 C 
ATOM      5  O   LIG    1      -21.321   9.079  26.719  0.00  0.00    -0.274 OA
BRANCH   2   6
ATOM      6  C   LIG    1      -20.535   9.412  29.483  0.00  0.00    +0.139 C 
ATOM      7  C   LIG    1      -20.799  10.867  29.825  0.00  0.00    +0.036 C 
BRANCH   6   8
ATOM      8  C   LIG    1      -20.078   8.646  30.714  0.00  0.00    +0.184 C 
ATOM      9  O   LIG    1      -20.468   7.506  30.966  0.00  0.00    -0.293 OA
BRANCH   8  11
ATOM     10  F   LIG    1      -19.776   9.686  32.819  0.00  0.00    -0.241 F 
ATOM     11  C   LIG    1      -19.150   9.375  31.653  0.00  0.00    +0.289 C 
ENDBRANCH   8  11
ENDBRANCH   6   8
ENDBRANCH   2   6
ENDBRANCH   1   4
BRANCH   1  12
ATOM     12  N   LIG    1      -24.330   8.614  28.223  0.00  0.00    -0.269 N 
ATOM     13  H   LIG    1      -24.423   9.622  28.149  0.00  0.00    +0.153 HD
ATOM     14  C   LIG    1      -25.171   7.957  29.099  0.00  0.00    +0.401 C 
ATOM     15  O   LIG    1      -25.201   6.745  29.289  0.00  0.00    -0.226 OA
BRANCH  14  16
ATOM     16  O   LIG    1      -25.975   8.861  29.734  0.00  0.00    -0.446 OA
BRANCH  16  17
ATOM     17  C   LIG    1      -25.305   9.844  30.531  0.00  0.00    +0.269 C 
BRANCH  17  18
ATOM     18  C   LIG    1      -24.784   9.267  31.804  0.00  0.00    -0.010 A 
ATOM     19  C   LIG    1      -23.412   9.261  32.057  0.00  0.00    +0.007 A 
ATOM     20  C   LIG    1      -22.925   8.721  33.247  0.00  0.00    +0.000 A 
ATOM     21  C   LIG    1      -23.810   8.187  34.184  0.00  0.00    +0.000 A 
ATOM     22  C   LIG    1      -25.182   8.193  33.931  0.00  0.00    +0.000 A 
ATOM     23  C   LIG    1      -25.669   8.733  32.741  0.00  0.00    +0.007 A 
ENDBRANCH  17  18
ENDBRANCH  16  17
ENDBRANCH  14  16
ENDBRANCH   1  12
BRANCH   1  24
ATOM     24  C   LIG    1      -23.726   7.995  25.909  0.00  0.00    +0.067 C 
BRANCH  24  25
ATOM     25  C   LIG    1      -23.256   6.779  25.152  0.00  0.00    -0.045 A 
ATOM     26  C   LIG    1      -22.722   6.932  23.882  0.00  0.00    +0.004 A 
ATOM     27  C   LIG    1      -22.288   5.807  23.181  0.00  0.00    +0.000 A 
ATOM     28  C   LIG    1      -22.392   4.543  23.760  0.00  0.00    +0.000 A 
ATOM     29  C   LIG    1      -22.931   4.402  25.039  0.00  0.00    +0.000 A 
ATOM     30  C   LIG    1      -23.366   5.527  25.739  0.00  0.00    +0.004 A 
ENDBRANCH  24  25
ENDBRANCH   1  24
TORSDOF 10
ENDMDL
MODEL 7
REMARK VINA RESULT:      -6.6      2.738      5.932
REMARK  Name = 6915837
REMARK                            x       y       z     vdW  Elec       q    Type
REMARK                         _______ _______ _______ _____ _____    ______ ____
ROOT
ATOM      1  C   LIG    1      -20.932  10.073  30.359  0.00  0.00    +0.166 C 
ENDROOT
BRANCH   1   4
ATOM      2  N   LIG    1      -21.487   8.940  28.298  0.00  0.00    -0.304 N 
ATOM      3  H   LIG    1      -21.375   8.106  28.868  0.00  0.00    +0.149 HD
ATOM      4  C   LIG    1      -21.299  10.185  28.883  0.00  0.00    +0.234 C 
ATOM      5  O   LIG    1      -21.372  11.260  28.291  0.00  0.00    -0.274 OA
BRANCH   2   6
ATOM      6  C   LIG    1      -21.794   8.760  26.897  0.00  0.00    +0.139 C 
ATOM      7  C   LIG    1      -20.933   7.682  26.264  0.00  0.00    +0.036 C 
BRANCH   6   8
ATOM      8  C   LIG    1      -23.267   8.397  26.800  0.00  0.00    +0.184 C 
ATOM      9  O   LIG    1      -23.910   8.515  25.757  0.00  0.00    -0.293 OA
BRANCH   8  11
ATOM     10  F   LIG    1      -24.795   8.855  28.549  0.00  0.00    -0.241 F 
ATOM     11  C   LIG    1      -23.927   7.924  28.070  0.00  0.00    +0.289 C 
ENDBRANCH   8  11
ENDBRANCH   6   8
ENDBRANCH   2   6
ENDBRANCH   1   4
BRANCH   1  12
ATOM     12  N   LIG    1      -21.903   9.203  30.973  0.00  0.00    -0.269 N 
ATOM     13  H   LIG    1      -21.647   8.237  31.154  0.00  0.00    +0.153 HD
ATOM     14  C   LIG    1      -23.165   9.611  31.358  0.00  0.00    +0.401 C 
ATOM     15  O   LIG    1      -23.621  10.743  31.231  0.00  0.00    -0.226 OA
BRANCH  14  16
ATOM     16  O   LIG    1      -23.845   8.560  31.907  0.00  0.00    -0.446 OA
BRANCH  16  17
ATOM     17  C   LIG    1      -24.236   8.714  33.276  0.00  0.00    +0.269 C 
BRANCH  17  18
ATOM     18  C   LIG    1      -23.274   8.057  34.206  0.00  0.00    -0.010 A 
ATOM     19  C   LIG    1      -23.140   8.523  35.514  0.00  0.00    +0.007 A 
ATOM     20  C   LIG    1      -22.239   7.908  36.385  0.00  0.00    +0.000 A 
ATOM     21  C   LIG    1      -21.472   6.829  35.947  0.00  0.00    +0.000 A 
ATOM     22  C   LIG    1      -21.606   6.363  34.639  0.00  0.00    +0.000 A 
ATOM     23  C   LIG    1      -22.507   6.977  33.768  0.00  0.00    +0.007 A 
ENDBRANCH  17  18
ENDBRANCH  16  17
ENDBRANCH  14  16
ENDBRANCH   1  12
BRANCH   1  24
ATOM     24  C   LIG    1      -19.501   9.545  30.514  0.00  0.00    +0.067 C 
BRANCH  24  25
ATOM     25  C   LIG    1      -19.197   9.088  31.919  0.00  0.00    -0.045 A 
ATOM     26  C   LIG    1      -18.592   7.857  32.118  0.00  0.00    +0.004 A 
ATOM     27  C   LIG    1      -18.311   7.435  33.417  0.00  0.00    +0.000 A 
ATOM     28  C   LIG    1      -18.637   8.250  34.501  0.00  0.00    +0.000 A 
ATOM     29  C   LIG    1      -19.244   9.487  34.286  0.00  0.00    +0.000 A 
ATOM     30  C   LIG    1      -19.526   9.909  32.987  0.00  0.00    +0.004 A 
ENDBRANCH  24  25
ENDBRANCH   1  24
TORSDOF 10
ENDMDL
MODEL 8
REMARK VINA RESULT:      -6.6      4.239      7.762
REMARK  Name = 6915837
REMARK                            x       y       z     vdW  Elec       q    Type
REMARK                         _______ _______ _______ _____ _____    ______ ____
ROOT
ATOM      1  C   LIG    1      -22.941   7.848  34.775  0.00  0.00    +0.166 C 
ENDROOT
BRANCH   1   4
ATOM      2  N   LIG    1      -23.036   8.569  37.079  0.00  0.00    -0.304 N 
ATOM      3  H   LIG    1      -22.105   8.925  36.879  0.00  0.00    +0.149 HD
ATOM      4  C   LIG    1      -23.739   7.921  36.072  0.00  0.00    +0.234 C 
ATOM      5  O   LIG    1      -24.854   7.420  36.202  0.00  0.00    -0.274 OA
BRANCH   2   6
ATOM      6  C   LIG    1      -23.543   8.732  38.423  0.00  0.00    +0.139 C 
ATOM      7  C   LIG    1      -22.762   7.902  39.425  0.00  0.00    +0.036 C 
BRANCH   6   8
ATOM      8  C   LIG    1      -23.453  10.210  38.764  0.00  0.00    +0.184 C 
ATOM      9  O   LIG    1      -24.396  10.985  38.597  0.00  0.00    -0.293 OA
BRANCH   8  11
ATOM     10  F   LIG    1      -21.261  10.943  38.254  0.00  0.00    -0.241 F 
ATOM     11  C   LIG    1      -22.125  10.703  39.277  0.00  0.00    +0.289 C 
ENDBRANCH   8  11
ENDBRANCH   6   8
ENDBRANCH   2   6
ENDBRANCH   1   4
BRANCH   1  12
ATOM     12  N   LIG    1      -23.377   8.944  33.946  0.00  0.00    -0.269 N 
ATOM     13  H   LIG    1      -22.828   9.799  33.941  0.00  0.00    +0.153 HD
ATOM     14  C   LIG    1      -24.490   8.897  33.132  0.00  0.00    +0.401 C 
ATOM     15  O   LIG    1      -25.244   7.936  33.006  0.00  0.00    -0.226 OA
BRANCH  14  16
ATOM     16  O   LIG    1      -24.637  10.087  32.476  0.00  0.00    -0.446 OA
BRANCH  16  17
ATOM     17  C   LIG    1      -24.855  10.001  31.064  0.00  0.00    +0.269 C 
BRANCH  17  18
ATOM     18  C   LIG    1      -23.587   9.752  30.319  0.00  0.00    -0.010 A 
ATOM     19  C   LIG    1      -22.537  10.666  30.406  0.00  0.00    +0.007 A 
ATOM     20  C   LIG    1      -21.351  10.434  29.709  0.00  0.00    +0.000 A 
ATOM     21  C   LIG    1      -21.215   9.287  28.925  0.00  0.00    +0.000 A 
ATOM     22  C   LIG    1      -22.265   8.373  28.839  0.00  0.00    +0.000 A 
ATOM     23  C   LIG    1      -23.451   8.606  29.536  0.00  0.00    +0.007 A 
ENDBRANCH  17  18
ENDBRANCH  16  17
ENDBRANCH  14  16
ENDBRANCH   1  12
BRANCH   1  24
ATOM     24  C   LIG    1      -21.438   7.905  35.069  0.00  0.00    +0.067 C 
BRANCH  24  25
ATOM     25  C   LIG    1      -20.605   8.067  33.822  0.00  0.00    -0.045 A 
ATOM     26  C   LIG    1      -20.479   7.002  32.944  0.00  0.00    +0.004 A 
ATOM     27  C   LIG    1      -19.708   7.152  31.792  0.00  0.00    +0.000 A 
ATOM     28  C   LIG    1      -19.074   8.367  31.530  0.00  0.00    +0.000 A 
ATOM     29  C   LIG    1      -19.210   9.431  32.422  0.00  0.00    +0.000 A 
ATOM     30  C   LIG    1      -19.980   9.281  33.575  0.00  0.00    +0.004 A 
ENDBRANCH  24  25
ENDBRANCH   1  24
TORSDOF 10
ENDMDL
MODEL 9
REMARK VINA RESULT:      -6.5      2.259      5.724
REMARK  Name = 6915837
REMARK                            x       y       z     vdW  Elec       q    Type
REMARK                         _______ _______ _______ _____ _____    ______ ____
ROOT
ATOM      1  C   LIG    1      -23.019   9.261  29.835  0.00  0.00    +0.166 C 
ENDROOT
BRANCH   1   4
ATOM      2  N   LIG    1      -23.595   8.753  32.126  0.00  0.00    -0.304 N 
ATOM      3  H   LIG    1      -23.105   7.884  31.929  0.00  0.00    +0.149 HD
ATOM      4  C   LIG    1      -23.695   9.711  31.126  0.00  0.00    +0.234 C 
ATOM      5  O   LIG    1      -24.290  10.781  31.232  0.00  0.00    -0.274 OA
BRANCH   2   6
ATOM      6  C   LIG    1      -24.192   8.906  33.433  0.00  0.00    +0.139 C 
ATOM      7  C   LIG    1      -25.654   8.498  33.438  0.00  0.00    +0.036 C 
BRANCH   6   8
ATOM      8  C   LIG    1      -23.392   8.047  34.399  0.00  0.00    +0.184 C 
ATOM      9  O   LIG    1      -23.923   7.381  35.288  0.00  0.00    -0.293 OA
BRANCH   8  11
ATOM     10  F   LIG    1      -21.354   6.842  34.376  0.00  0.00    -0.241 F 
ATOM     11  C   LIG    1      -21.892   8.084  34.248  0.00  0.00    +0.289 C 
ENDBRANCH   8  11
ENDBRANCH   6   8
ENDBRANCH   2   6
ENDBRANCH   1   4
BRANCH   1  12
ATOM     12  N   LIG    1      -21.607   9.503  29.988  0.00  0.00    -0.269 N 
ATOM     13  H   LIG    1      -21.084   8.932  30.645  0.00  0.00    +0.153 HD
ATOM     14  C   LIG    1      -20.908  10.454  29.272  0.00  0.00    +0.401 C 
ATOM     15  O   LIG    1      -21.384  11.207  28.428  0.00  0.00    -0.226 OA
BRANCH  14  16
ATOM     16  O   LIG    1      -19.592  10.439  29.643  0.00  0.00    -0.446 OA
BRANCH  16  17
ATOM     17  C   LIG    1      -18.666  10.004  28.642  0.00  0.00    +0.269 C 
BRANCH  17  18
ATOM     18  C   LIG    1      -19.100   8.732  27.997  0.00  0.00    -0.010 A 
ATOM     19  C   LIG    1      -19.519   8.731  26.667  0.00  0.00    +0.007 A 
ATOM     20  C   LIG    1      -19.926   7.540  26.065  0.00  0.00    +0.000 A 
ATOM     21  C   LIG    1      -19.914   6.351  26.793  0.00  0.00    +0.000 A 
ATOM     22  C   LIG    1      -19.495   6.351  28.123  0.00  0.00    +0.000 A 
ATOM     23  C   LIG    1      -19.088   7.542  28.726  0.00  0.00    +0.007 A 
ENDBRANCH  17  18
ENDBRANCH  16  17
ENDBRANCH  14  16
ENDBRANCH   1  12
BRANCH   1  24
ATOM     24  C   LIG    1      -23.329   7.786  29.557  0.00  0.00    +0.067 C 
BRANCH  24  25
ATOM     25  C   LIG    1      -23.426   7.477  28.084  0.00  0.00    -0.045 A 
ATOM     26  C   LIG    1      -23.413   8.518  27.168  0.00  0.00    +0.004 A 
ATOM     27  C   LIG    1      -23.504   8.232  25.806  0.00  0.00    +0.000 A 
ATOM     28  C   LIG    1      -23.603   6.910  25.376  0.00  0.00    +0.000 A 
ATOM     29  C   LIG    1      -23.613   5.872  26.308  0.00  0.00    +0.000 A 
ATOM     30  C   LIG    1      -23.524   6.157  27.670  0.00  0.00    +0.004 A 
ENDBRANCH  24  25
ENDBRANCH   1  24
TORSDOF 10
ENDMDL
MODEL 10
REMARK VINA RESULT:      -6.4      2.677      7.248
REMARK  Name = 6915837
REMARK                            x       y       z     vdW  Elec       q    Type
REMARK                         _______ _______ _______ _____ _____    ______ ____
ROOT
ATOM      1  C   LIG    1      -22.595   8.410  33.445  0.00  0.00    +0.166 C 
ENDROOT
BRANCH   1   4
ATOM      2  N   LIG    1      -21.309   8.602  31.408  0.00  0.00    -0.304 N 
ATOM      3  H   LIG    1      -22.165   8.258  30.979  0.00  0.00    +0.149 HD
ATOM      4  C   LIG    1      -21.273   8.785  32.784  0.00  0.00    +0.234 C 
ATOM      5  O   LIG    1      -20.291   9.162  33.418  0.00  0.00    -0.274 OA
BRANCH   2   6
ATOM      6  C   LIG    1      -20.173   8.837  30.546  0.00  0.00    +0.139 C 
ATOM      7  C   LIG    1      -20.243   8.002  29.280  0.00  0.00    +0.036 C 
BRANCH   6   8
ATOM      8  C   LIG    1      -20.159  10.319  30.211  0.00  0.00    +0.184 C 
ATOM      9  O   LIG    1      -19.222  11.057  30.519  0.00  0.00    -0.293 OA
BRANCH   8  11
ATOM     10  F   LIG    1      -21.100  11.225  28.237  0.00  0.00    -0.241 F 
ATOM     11  C   LIG    1      -21.381  10.864  29.518  0.00  0.00    +0.289 C 
ENDBRANCH   8  11
ENDBRANCH   6   8
ENDBRANCH   2   6
ENDBRANCH   1   4
BRANCH   1  12
ATOM     12  N   LIG    1      -23.533   8.125  32.388  0.00  0.00    -0.269 N 
ATOM     13  H   LIG    1      -23.327   7.366  31.746  0.00  0.00    +0.153 HD
ATOM     14  C   LIG    1      -24.718   8.811  32.208  0.00  0.00    +0.401 C 
ATOM     15  O   LIG    1      -25.123   9.735  32.906  0.00  0.00    -0.226 OA
BRANCH  14  16
ATOM     16  O   LIG    1      -25.384   8.308  31.125  0.00  0.00    -0.446 OA
BRANCH  16  17
ATOM     17  C   LIG    1      -25.101   8.936  29.870  0.00  0.00    +0.269 C 
BRANCH  17  18
ATOM     18  C   LIG    1      -24.463   7.992  28.907  0.00  0.00    -0.010 A 
ATOM     19  C   LIG    1      -24.537   6.617  29.126  0.00  0.00    +0.007 A 
ATOM     20  C   LIG    1      -23.939   5.734  28.226  0.00  0.00    +0.000 A 
ATOM     21  C   LIG    1      -23.268   6.227  27.107  0.00  0.00    +0.000 A 
ATOM     22  C   LIG    1      -23.194   7.603  26.888  0.00  0.00    +0.000 A 
ATOM     23  C   LIG    1      -23.791   8.485  27.789  0.00  0.00    +0.007 A 
ENDBRANCH  17  18
ENDBRANCH  16  17
ENDBRANCH  14  16
ENDBRANCH   1  12
BRANCH   1  24
ATOM     24  C   LIG    1      -22.400   7.215  34.385  0.00  0.00    +0.067 C 
BRANCH  24  25
ATOM     25  C   LIG    1      -22.435   7.607  35.841  0.00  0.00    -0.045 A 
ATOM     26  C   LIG    1      -23.593   8.152  36.372  0.00  0.00    +0.004 A 
ATOM     27  C   LIG    1      -23.625   8.515  37.718  0.00  0.00    +0.000 A 
ATOM     28  C   LIG    1      -22.498   8.325  38.518  0.00  0.00    +0.000 A 
ATOM     29  C   LIG    1      -21.339   7.774  37.971  0.00  0.00    +0.000 A 
ATOM     30  C   LIG    1      -21.307   7.413  36.624  0.00  0.00    +0.004 A 
ENDBRANCH  24  25
ENDBRANCH   1  24
TORSDOF 10
ENDMDL
