MODEL 1
REMARK VINA RESULT:      -6.7      0.000      0.000
REMARK  Name = mdl28170.pdb
REMARK                            x       y       z     vdW  Elec       q    Type
REMARK                         _______ _______ _______ _____ _____    ______ ____
ROOT
ATOM      1  O   LIG    1      -25.164   8.621  28.920  0.00  0.00    -0.265 OA
ATOM      2  C   LIG    1      -23.941   8.671  29.020  0.00  0.00    +0.282 A 
ATOM      3  C   LIG    1      -23.248   8.640  30.267  0.00  0.00    +0.152 A 
ATOM      4  C   LIG    1      -21.887   8.695  30.401  0.00  0.00    +0.169 A 
ATOM      5  N   LIG    1      -21.506   8.645  31.715  0.00  0.00    -0.210 NA
ATOM      6  C   LIG    1      -22.640   8.561  32.379  0.00  0.00    +0.136 A 
ATOM      7  N   LIG    1      -21.045   8.786  29.302  0.00  0.00    -0.277 N 
ATOM      8  C   LIG    1      -21.601   8.826  27.997  0.00  0.00    +0.334 A 
ATOM      9  O   LIG    1      -20.901   8.910  26.982  0.00  0.00    -0.246 OA
ATOM     10  N   LIG    1      -23.726   8.555  31.544  0.00  0.00    -0.322 N 
ATOM     11  C   LIG    1      -25.119   8.472  31.926  0.00  0.00    +0.151 C 
ATOM     12  N   LIG    1      -23.039   8.766  27.927  0.00  0.00    -0.259 N 
ENDROOT
BRANCH   6  13
ATOM     13  C   LIG    1      -22.855   8.480  33.769  0.00  0.00    +0.047 C 
ATOM     14  C   LIG    1      -21.872   8.297  34.687  0.00  0.00    +0.011 C 
BRANCH  14  15
ATOM     15  C   LIG    1      -22.074   8.235  36.146  0.00  0.00    -0.021 A 
ATOM     16  C   LIG    1      -21.156   7.557  36.930  0.00  0.00    +0.012 A 
ATOM     17  C   LIG    1      -21.348   7.498  38.310  0.00  0.00    +0.050 A 
ATOM     18  C   LIG    1      -22.456   8.120  38.887  0.00  0.00    +0.162 A 
ATOM     19  C   LIG    1      -23.371   8.800  38.083  0.00  0.00    +0.162 A 
ATOM     20  C   LIG    1      -23.179   8.858  36.703  0.00  0.00    +0.057 A 
BRANCH  19  21
ATOM     21  O   LIG    1      -24.455   9.412  38.636  0.00  0.00    -0.491 OA
ATOM     22  C   LIG    1      -24.318  10.791  38.975  0.00  0.00    +0.277 C 
ENDBRANCH  19  21
BRANCH  18  23
ATOM     23  O   LIG    1      -22.633   8.055  40.236  0.00  0.00    -0.491 OA
ATOM     24  C   LIG    1      -22.330   6.815  40.871  0.00  0.00    +0.277 C 
ENDBRANCH  18  23
ENDBRANCH  14  15
ENDBRANCH   6  13
BRANCH   7  25
ATOM     25  C   LIG    1      -19.602   8.844  29.495  0.00  0.00    +0.125 C 
ATOM     26  C   LIG    1      -19.127  10.268  29.701  0.00  0.00    +0.027 C 
ENDBRANCH   7  25
BRANCH  12  27
ATOM     27  C   LIG    1      -23.631   8.804  26.593  0.00  0.00    +0.126 C 
ATOM     28  C   LIG    1      -23.648   7.432  25.954  0.00  0.00    +0.027 C 
ENDBRANCH  12  27
TORSDOF 6
ENDMDL
MODEL 2
REMARK VINA RESULT:      -6.4      1.966      3.970
REMARK  Name = mdl28170.pdb
REMARK                            x       y       z     vdW  Elec       q    Type
REMARK                         _______ _______ _______ _____ _____    ______ ____
ROOT
ATOM      1  O   LIG    1      -19.625   8.848  31.570  0.00  0.00    -0.265 OA
ATOM      2  C   LIG    1      -20.850   8.915  31.519  0.00  0.00    +0.282 A 
ATOM      3  C   LIG    1      -21.698   8.780  32.659  0.00  0.00    +0.152 A 
ATOM      4  C   LIG    1      -23.064   8.850  32.624  0.00  0.00    +0.169 A 
ATOM      5  N   LIG    1      -23.611   8.686  33.869  0.00  0.00    -0.210 NA
ATOM      6  C   LIG    1      -22.572   8.516  34.660  0.00  0.00    +0.136 A 
ATOM      7  N   LIG    1      -23.757   9.065  31.442  0.00  0.00    -0.277 N 
ATOM      8  C   LIG    1      -23.038   9.217  30.228  0.00  0.00    +0.334 A 
ATOM      9  O   LIG    1      -23.602   9.407  29.145  0.00  0.00    -0.246 OA
ATOM     10  N   LIG    1      -21.387   8.564  33.972  0.00  0.00    -0.322 N 
ATOM     11  C   LIG    1      -20.056   8.419  34.518  0.00  0.00    +0.151 C 
ATOM     12  N   LIG    1      -21.603   9.132  30.335  0.00  0.00    -0.259 N 
ENDROOT
BRANCH   6  13
ATOM     13  C   LIG    1      -22.537   8.304  36.052  0.00  0.00    +0.047 C 
ATOM     14  C   LIG    1      -22.691   9.282  36.980  0.00  0.00    +0.011 C 
BRANCH  14  15
ATOM     15  C   LIG    1      -22.684   9.076  38.440  0.00  0.00    -0.021 A 
ATOM     16  C   LIG    1      -22.846  10.165  39.280  0.00  0.00    +0.012 A 
ATOM     17  C   LIG    1      -22.839   9.969  40.661  0.00  0.00    +0.050 A 
ATOM     18  C   LIG    1      -22.669   8.686  41.183  0.00  0.00    +0.162 A 
ATOM     19  C   LIG    1      -22.507   7.600  40.323  0.00  0.00    +0.162 A 
ATOM     20  C   LIG    1      -22.514   7.795  38.942  0.00  0.00    +0.057 A 
BRANCH  19  21
ATOM     21  O   LIG    1      -22.343   6.343  40.821  0.00  0.00    -0.491 OA
ATOM     22  C   LIG    1      -21.128   5.669  40.494  0.00  0.00    +0.277 C 
ENDBRANCH  19  21
BRANCH  18  23
ATOM     23  O   LIG    1      -22.663   8.507  42.533  0.00  0.00    -0.491 OA
ATOM     24  C   LIG    1      -23.334   9.489  43.320  0.00  0.00    +0.277 C 
ENDBRANCH  18  23
ENDBRANCH  14  15
ENDBRANCH   6  13
BRANCH   7  25
ATOM     25  C   LIG    1      -25.213   9.129  31.455  0.00  0.00    +0.125 C 
ATOM     26  C   LIG    1      -25.830   7.779  31.150  0.00  0.00    +0.027 C 
ENDBRANCH   7  25
BRANCH  12  27
ATOM     27  C   LIG    1      -20.846   9.286  29.097  0.00  0.00    +0.126 C 
ATOM     28  C   LIG    1      -20.530  10.741  28.819  0.00  0.00    +0.027 C 
ENDBRANCH  12  27
TORSDOF 6
ENDMDL
MODEL 3
REMARK VINA RESULT:      -6.3      2.934      9.733
REMARK  Name = mdl28170.pdb
REMARK                            x       y       z     vdW  Elec       q    Type
REMARK                         _______ _______ _______ _____ _____    ______ ____
ROOT
ATOM      1  O   LIG    1      -20.651   6.316  38.774  0.00  0.00    -0.265 OA
ATOM      2  C   LIG    1      -21.370   7.304  38.893  0.00  0.00    +0.282 A 
ATOM      3  C   LIG    1      -22.003   7.959  37.794  0.00  0.00    +0.152 A 
ATOM      4  C   LIG    1      -22.806   9.062  37.905  0.00  0.00    +0.169 A 
ATOM      5  N   LIG    1      -23.273   9.471  36.684  0.00  0.00    -0.210 NA
ATOM      6  C   LIG    1      -22.750   8.614  35.832  0.00  0.00    +0.136 A 
ATOM      7  N   LIG    1      -23.082   9.649  39.131  0.00  0.00    -0.277 N 
ATOM      8  C   LIG    1      -22.517   9.099  40.311  0.00  0.00    +0.334 A 
ATOM      9  O   LIG    1      -22.724   9.581  41.430  0.00  0.00    -0.246 OA
ATOM     10  N   LIG    1      -21.970   7.677  36.458  0.00  0.00    -0.322 N 
ATOM     11  C   LIG    1      -21.246   6.590  35.836  0.00  0.00    +0.151 C 
ATOM     12  N   LIG    1      -21.680   7.940  40.124  0.00  0.00    -0.259 N 
ENDROOT
BRANCH   6  13
ATOM     13  C   LIG    1      -22.892   8.550  34.432  0.00  0.00    +0.047 C 
ATOM     14  C   LIG    1      -23.956   9.040  33.746  0.00  0.00    +0.011 C 
BRANCH  14  15
ATOM     15  C   LIG    1      -24.109   9.006  32.281  0.00  0.00    -0.021 A 
ATOM     16  C   LIG    1      -25.234   8.415  31.730  0.00  0.00    +0.012 A 
ATOM     17  C   LIG    1      -25.379   8.383  30.343  0.00  0.00    +0.050 A 
ATOM     18  C   LIG    1      -24.396   8.943  29.526  0.00  0.00    +0.162 A 
ATOM     19  C   LIG    1      -23.269   9.535  30.097  0.00  0.00    +0.162 A 
ATOM     20  C   LIG    1      -23.125   9.567  31.484  0.00  0.00    +0.057 A 
BRANCH  19  21
ATOM     21  O   LIG    1      -22.305  10.087  29.309  0.00  0.00    -0.491 OA
ATOM     22  C   LIG    1      -21.249  10.784  29.968  0.00  0.00    +0.277 C 
ENDBRANCH  19  21
BRANCH  18  23
ATOM     23  O   LIG    1      -24.548   8.904  28.173  0.00  0.00    -0.491 OA
ATOM     24  C   LIG    1      -23.801   7.917  27.465  0.00  0.00    +0.277 C 
ENDBRANCH  18  23
ENDBRANCH  14  15
ENDBRANCH   6  13
BRANCH   7  25
ATOM     25  C   LIG    1      -23.942  10.823  39.198  0.00  0.00    +0.125 C 
ATOM     26  C   LIG    1      -25.392  10.438  39.406  0.00  0.00    +0.027 C 
ENDBRANCH   7  25
BRANCH  12  27
ATOM     27  C   LIG    1      -21.090   7.360  41.326  0.00  0.00    +0.126 C 
ATOM     28  C   LIG    1      -19.730   7.956  41.620  0.00  0.00    +0.027 C 
ENDBRANCH  12  27
TORSDOF 6
ENDMDL
MODEL 4
REMARK VINA RESULT:      -6.3      1.290      2.699
REMARK  Name = mdl28170.pdb
REMARK                            x       y       z     vdW  Elec       q    Type
REMARK                         _______ _______ _______ _____ _____    ______ ____
ROOT
ATOM      1  O   LIG    1      -19.469   9.224  28.950  0.00  0.00    -0.265 OA
ATOM      2  C   LIG    1      -20.663   8.944  29.011  0.00  0.00    +0.282 A 
ATOM      3  C   LIG    1      -21.377   8.789  30.237  0.00  0.00    +0.152 A 
ATOM      4  C   LIG    1      -22.707   8.477  30.327  0.00  0.00    +0.169 A 
ATOM      5  N   LIG    1      -23.119   8.395  31.630  0.00  0.00    -0.210 NA
ATOM      6  C   LIG    1      -22.036   8.659  32.331  0.00  0.00    +0.136 A 
ATOM      7  N   LIG    1      -23.492   8.281  29.200  0.00  0.00    -0.277 N 
ATOM      8  C   LIG    1      -22.909   8.403  27.913  0.00  0.00    +0.334 A 
ATOM      9  O   LIG    1      -23.559   8.236  26.874  0.00  0.00    -0.246 OA
ATOM     10  N   LIG    1      -20.952   8.904  31.530  0.00  0.00    -0.322 N 
ATOM     11  C   LIG    1      -19.607   9.227  31.957  0.00  0.00    +0.151 C 
ATOM     12  N   LIG    1      -21.507   8.733  27.889  0.00  0.00    -0.259 N 
ENDROOT
BRANCH   6  13
ATOM     13  C   LIG    1      -21.871   8.716  33.729  0.00  0.00    +0.047 C 
ATOM     14  C   LIG    1      -22.594   7.985  34.616  0.00  0.00    +0.011 C 
BRANCH  14  15
ATOM     15  C   LIG    1      -22.417   8.012  36.079  0.00  0.00    -0.021 A 
ATOM     16  C   LIG    1      -21.304   7.408  36.639  0.00  0.00    +0.012 A 
ATOM     17  C   LIG    1      -21.138   7.433  38.024  0.00  0.00    +0.050 A 
ATOM     18  C   LIG    1      -22.087   8.062  38.829  0.00  0.00    +0.162 A 
ATOM     19  C   LIG    1      -23.203   8.666  38.249  0.00  0.00    +0.162 A 
ATOM     20  C   LIG    1      -23.370   8.641  36.865  0.00  0.00    +0.057 A 
BRANCH  19  21
ATOM     21  O   LIG    1      -24.136   9.285  39.026  0.00  0.00    -0.491 OA
ATOM     22  C   LIG    1      -24.029  10.701  39.162  0.00  0.00    +0.277 C 
ENDBRANCH  19  21
BRANCH  18  23
ATOM     23  O   LIG    1      -21.915   8.079  40.180  0.00  0.00    -0.491 OA
ATOM     24  C   LIG    1      -22.459   6.986  40.917  0.00  0.00    +0.277 C 
ENDBRANCH  18  23
ENDBRANCH  14  15
ENDBRANCH   6  13
BRANCH   7  25
ATOM     25  C   LIG    1      -24.903   7.946  29.348  0.00  0.00    +0.125 C 
ATOM     26  C   LIG    1      -25.766   9.191  29.392  0.00  0.00    +0.027 C 
ENDBRANCH   7  25
BRANCH  12  27
ATOM     27  C   LIG    1      -20.889   8.864  26.573  0.00  0.00    +0.126 C 
ATOM     28  C   LIG    1      -20.333   7.542  26.086  0.00  0.00    +0.027 C 
ENDBRANCH  12  27
TORSDOF 6
ENDMDL
MODEL 5
REMARK VINA RESULT:      -6.3      9.746     13.327
REMARK  Name = mdl28170.pdb
REMARK                            x       y       z     vdW  Elec       q    Type
REMARK                         _______ _______ _______ _____ _____    ______ ____
ROOT
ATOM      1  O   LIG    1      -23.090   9.964  40.582  0.00  0.00    -0.265 OA
ATOM      2  C   LIG    1      -23.243   9.712  41.775  0.00  0.00    +0.282 A 
ATOM      3  C   LIG    1      -24.224  10.342  42.597  0.00  0.00    +0.152 A 
ATOM      4  C   LIG    1      -24.410  10.076  43.927  0.00  0.00    +0.169 A 
ATOM      5  N   LIG    1      -25.422  10.831  44.457  0.00  0.00    -0.210 NA
ATOM      6  C   LIG    1      -25.851  11.556  43.444  0.00  0.00    +0.136 A 
ATOM      7  N   LIG    1      -23.637   9.143  44.604  0.00  0.00    -0.277 N 
ATOM      8  C   LIG    1      -22.621   8.440  43.906  0.00  0.00    +0.334 A 
ATOM      9  O   LIG    1      -21.900   7.601  44.457  0.00  0.00    -0.246 OA
ATOM     10  N   LIG    1      -25.154  11.296  42.293  0.00  0.00    -0.322 N 
ATOM     11  C   LIG    1      -25.355  11.904  40.996  0.00  0.00    +0.151 C 
ATOM     12  N   LIG    1      -22.478   8.768  42.510  0.00  0.00    -0.259 N 
ENDROOT
BRANCH   6  13
ATOM     13  C   LIG    1      -26.884  12.513  43.407  0.00  0.00    +0.047 C 
ATOM     14  C   LIG    1      -26.698  13.848  43.568  0.00  0.00    +0.011 C 
BRANCH  14  15
ATOM     15  C   LIG    1      -27.762  14.866  43.507  0.00  0.00    -0.021 A 
ATOM     16  C   LIG    1      -29.087  14.464  43.520  0.00  0.00    +0.012 A 
ATOM     17  C   LIG    1      -30.093  15.428  43.461  0.00  0.00    +0.050 A 
ATOM     18  C   LIG    1      -29.761  16.781  43.391  0.00  0.00    +0.162 A 
ATOM     19  C   LIG    1      -28.421  17.169  43.379  0.00  0.00    +0.162 A 
ATOM     20  C   LIG    1      -27.414  16.206  43.438  0.00  0.00    +0.057 A 
BRANCH  19  21
ATOM     21  O   LIG    1      -28.084  18.487  43.313  0.00  0.00    -0.491 OA
ATOM     22  C   LIG    1      -26.693  18.803  43.335  0.00  0.00    +0.277 C 
ENDBRANCH  19  21
BRANCH  18  23
ATOM     23  O   LIG    1      -30.752  17.713  43.333  0.00  0.00    -0.491 OA
ATOM     24  C   LIG    1      -31.921  17.465  44.110  0.00  0.00    +0.277 C 
ENDBRANCH  18  23
ENDBRANCH  14  15
ENDBRANCH   6  13
BRANCH   7  25
ATOM     25  C   LIG    1      -23.871   8.897  46.021  0.00  0.00    +0.125 C 
ATOM     26  C   LIG    1      -24.740   7.675  46.236  0.00  0.00    +0.027 C 
ENDBRANCH   7  25
BRANCH  12  27
ATOM     27  C   LIG    1      -21.439   8.054  41.775  0.00  0.00    +0.126 C 
ATOM     28  C   LIG    1      -21.994   6.829  41.079  0.00  0.00    +0.027 C 
ENDBRANCH  12  27
TORSDOF 6
ENDMDL
MODEL 6
REMARK VINA RESULT:      -6.2      9.595     13.491
REMARK  Name = mdl28170.pdb
REMARK                            x       y       z     vdW  Elec       q    Type
REMARK                         _______ _______ _______ _____ _____    ______ ____
ROOT
ATOM      1  O   LIG    1      -25.046   9.590  45.457  0.00  0.00    -0.265 OA
ATOM      2  C   LIG    1      -24.487   9.796  44.383  0.00  0.00    +0.282 A 
ATOM      3  C   LIG    1      -24.674  10.980  43.609  0.00  0.00    +0.152 A 
ATOM      4  C   LIG    1      -24.062  11.228  42.410  0.00  0.00    +0.169 A 
ATOM      5  N   LIG    1      -24.429  12.444  41.897  0.00  0.00    -0.210 NA
ATOM      6  C   LIG    1      -25.267  12.932  42.788  0.00  0.00    +0.136 A 
ATOM      7  N   LIG    1      -23.183  10.322  41.833  0.00  0.00    -0.277 N 
ATOM      8  C   LIG    1      -22.905   9.100  42.497  0.00  0.00    +0.334 A 
ATOM      9  O   LIG    1      -22.134   8.254  42.030  0.00  0.00    -0.246 OA
ATOM     10  N   LIG    1      -25.448  12.080  43.846  0.00  0.00    -0.322 N 
ATOM     11  C   LIG    1      -26.293  12.291  45.001  0.00  0.00    +0.151 C 
ATOM     12  N   LIG    1      -23.583   8.901  43.754  0.00  0.00    -0.259 N 
ENDROOT
BRANCH   6  13
ATOM     13  C   LIG    1      -25.958  14.160  42.783  0.00  0.00    +0.047 C 
ATOM     14  C   LIG    1      -25.511  15.293  43.382  0.00  0.00    +0.011 C 
BRANCH  14  15
ATOM     15  C   LIG    1      -26.207  16.592  43.365  0.00  0.00    -0.021 A 
ATOM     16  C   LIG    1      -25.463  17.760  43.326  0.00  0.00    +0.012 A 
ATOM     17  C   LIG    1      -26.122  18.989  43.310  0.00  0.00    +0.050 A 
ATOM     18  C   LIG    1      -27.516  19.034  43.333  0.00  0.00    +0.162 A 
ATOM     19  C   LIG    1      -28.251  17.849  43.372  0.00  0.00    +0.162 A 
ATOM     20  C   LIG    1      -27.592  16.619  43.388  0.00  0.00    +0.057 A 
BRANCH  19  21
ATOM     21  O   LIG    1      -29.613  17.880  43.393  0.00  0.00    -0.491 OA
ATOM     22  C   LIG    1      -30.290  16.625  43.430  0.00  0.00    +0.277 C 
ENDBRANCH  19  21
BRANCH  18  23
ATOM     23  O   LIG    1      -28.148  20.240  43.318  0.00  0.00    -0.491 OA
ATOM     24  C   LIG    1      -27.357  21.390  43.609  0.00  0.00    +0.277 C 
ENDBRANCH  18  23
ENDBRANCH  14  15
ENDBRANCH   6  13
BRANCH   7  25
ATOM     25  C   LIG    1      -22.558  10.631  40.553  0.00  0.00    +0.125 C 
ATOM     26  C   LIG    1      -21.287  11.434  40.736  0.00  0.00    +0.027 C 
ENDBRANCH   7  25
BRANCH  12  27
ATOM     27  C   LIG    1      -23.309   7.649  44.452  0.00  0.00    +0.126 C 
ATOM     28  C   LIG    1      -22.151   7.794  45.418  0.00  0.00    +0.027 C 
ENDBRANCH  12  27
TORSDOF 6
ENDMDL
MODEL 7
REMARK VINA RESULT:      -6.1      7.658     11.443
REMARK  Name = mdl28170.pdb
REMARK                            x       y       z     vdW  Elec       q    Type
REMARK                         _______ _______ _______ _____ _____    ______ ____
ROOT
ATOM      1  O   LIG    1      -23.799   9.391  38.492  0.00  0.00    -0.265 OA
ATOM      2  C   LIG    1      -23.075   9.867  39.363  0.00  0.00    +0.282 A 
ATOM      3  C   LIG    1      -23.516  10.832  40.317  0.00  0.00    +0.152 A 
ATOM      4  C   LIG    1      -22.726  11.375  41.294  0.00  0.00    +0.169 A 
ATOM      5  N   LIG    1      -23.418  12.272  42.063  0.00  0.00    -0.210 NA
ATOM      6  C   LIG    1      -24.630  12.273  41.549  0.00  0.00    +0.136 A 
ATOM      7  N   LIG    1      -21.393  11.019  41.442  0.00  0.00    -0.277 N 
ATOM      8  C   LIG    1      -20.822  10.067  40.558  0.00  0.00    +0.334 A 
ATOM      9  O   LIG    1      -19.640   9.714  40.640  0.00  0.00    -0.246 OA
ATOM     10  N   LIG    1      -24.740  11.415  40.486  0.00  0.00    -0.322 N 
ATOM     11  C   LIG    1      -25.919  11.161  39.688  0.00  0.00    +0.151 C 
ATOM     12  N   LIG    1      -21.708   9.536  39.553  0.00  0.00    -0.259 N 
ENDROOT
BRANCH   6  13
ATOM     13  C   LIG    1      -25.765  13.010  41.943  0.00  0.00    +0.047 C 
ATOM     14  C   LIG    1      -25.731  14.082  42.775  0.00  0.00    +0.011 C 
BRANCH  14  15
ATOM     15  C   LIG    1      -26.903  14.880  43.177  0.00  0.00    -0.021 A 
ATOM     16  C   LIG    1      -28.140  14.266  43.278  0.00  0.00    +0.012 A 
ATOM     17  C   LIG    1      -29.248  15.022  43.658  0.00  0.00    +0.050 A 
ATOM     18  C   LIG    1      -29.104  16.383  43.932  0.00  0.00    +0.162 A 
ATOM     19  C   LIG    1      -27.851  16.986  43.825  0.00  0.00    +0.162 A 
ATOM     20  C   LIG    1      -26.742  16.230  43.445  0.00  0.00    +0.057 A 
BRANCH  19  21
ATOM     21  O   LIG    1      -27.699  18.313  44.092  0.00  0.00    -0.491 OA
ATOM     22  C   LIG    1      -26.811  19.046  43.249  0.00  0.00    +0.277 C 
ENDBRANCH  19  21
BRANCH  18  23
ATOM     23  O   LIG    1      -30.194  17.111  44.301  0.00  0.00    -0.491 OA
ATOM     24  C   LIG    1      -31.275  17.177  43.373  0.00  0.00    +0.277 C 
ENDBRANCH  18  23
ENDBRANCH  14  15
ENDBRANCH   6  13
BRANCH   7  25
ATOM     25  C   LIG    1      -20.591  11.627  42.496  0.00  0.00    +0.125 C 
ATOM     26  C   LIG    1      -19.911  12.892  42.016  0.00  0.00    +0.027 C 
ENDBRANCH   7  25
BRANCH  12  27
ATOM     27  C   LIG    1      -21.139   8.554  38.634  0.00  0.00    +0.126 C 
ATOM     28  C   LIG    1      -21.262   7.147  39.181  0.00  0.00    +0.027 C 
ENDBRANCH  12  27
TORSDOF 6
ENDMDL
MODEL 8
REMARK VINA RESULT:      -6.0      8.858     14.657
REMARK  Name = mdl28170.pdb
REMARK                            x       y       z     vdW  Elec       q    Type
REMARK                         _______ _______ _______ _____ _____    ______ ____
ROOT
ATOM      1  O   LIG    1      -28.575  13.862  47.134  0.00  0.00    -0.265 OA
ATOM      2  C   LIG    1      -28.680  14.732  46.274  0.00  0.00    +0.282 A 
ATOM      3  C   LIG    1      -27.955  14.721  45.044  0.00  0.00    +0.152 A 
ATOM      4  C   LIG    1      -28.057  15.680  44.074  0.00  0.00    +0.169 A 
ATOM      5  N   LIG    1      -27.245  15.407  43.006  0.00  0.00    -0.210 NA
ATOM      6  C   LIG    1      -26.648  14.279  43.331  0.00  0.00    +0.136 A 
ATOM      7  N   LIG    1      -28.901  16.773  44.208  0.00  0.00    -0.277 N 
ATOM      8  C   LIG    1      -29.683  16.911  45.384  0.00  0.00    +0.334 A 
ATOM      9  O   LIG    1      -30.449  17.865  45.561  0.00  0.00    -0.246 OA
ATOM     10  N   LIG    1      -27.046  13.823  44.561  0.00  0.00    -0.322 N 
ATOM     11  C   LIG    1      -26.600  12.621  45.231  0.00  0.00    +0.151 C 
ATOM     12  N   LIG    1      -29.527  15.868  46.366  0.00  0.00    -0.259 N 
ENDROOT
BRANCH   6  13
ATOM     13  C   LIG    1      -25.703  13.528  42.605  0.00  0.00    +0.047 C 
ATOM     14  C   LIG    1      -26.018  12.648  41.620  0.00  0.00    +0.011 C 
BRANCH  14  15
ATOM     15  C   LIG    1      -25.043  11.874  40.832  0.00  0.00    -0.021 A 
ATOM     16  C   LIG    1      -25.479  11.154  39.732  0.00  0.00    +0.012 A 
ATOM     17  C   LIG    1      -24.556  10.421  38.986  0.00  0.00    +0.050 A 
ATOM     18  C   LIG    1      -23.209  10.417  39.351  0.00  0.00    +0.162 A 
ATOM     19  C   LIG    1      -22.786  11.148  40.462  0.00  0.00    +0.162 A 
ATOM     20  C   LIG    1      -23.709  11.881  41.207  0.00  0.00    +0.057 A 
BRANCH  19  21
ATOM     21  O   LIG    1      -21.474  11.154  40.826  0.00  0.00    -0.491 OA
ATOM     22  C   LIG    1      -21.065  12.150  41.762  0.00  0.00    +0.277 C 
ENDBRANCH  19  21
BRANCH  18  23
ATOM     23  O   LIG    1      -22.317   9.697  38.616  0.00  0.00    -0.491 OA
ATOM     24  C   LIG    1      -22.799   9.101  37.413  0.00  0.00    +0.277 C 
ENDBRANCH  18  23
ENDBRANCH  14  15
ENDBRANCH   6  13
BRANCH   7  25
ATOM     25  C   LIG    1      -28.973  17.770  43.148  0.00  0.00    +0.125 C 
ATOM     26  C   LIG    1      -28.034  18.929  43.411  0.00  0.00    +0.027 C 
ENDBRANCH   7  25
BRANCH  12  27
ATOM     27  C   LIG    1      -30.324  15.991  47.583  0.00  0.00    +0.126 C 
ATOM     28  C   LIG    1      -31.655  15.281  47.448  0.00  0.00    +0.027 C 
ENDBRANCH  12  27
TORSDOF 6
ENDMDL
MODEL 9
REMARK VINA RESULT:      -6.0      1.762      2.889
REMARK  Name = mdl28170.pdb
REMARK                            x       y       z     vdW  Elec       q    Type
REMARK                         _______ _______ _______ _____ _____    ______ ____
ROOT
ATOM      1  O   LIG    1      -25.271   8.236  31.523  0.00  0.00    -0.265 OA
ATOM      2  C   LIG    1      -24.075   8.512  31.488  0.00  0.00    +0.282 A 
ATOM      3  C   LIG    1      -23.237   8.545  32.642  0.00  0.00    +0.152 A 
ATOM      4  C   LIG    1      -21.903   8.851  32.625  0.00  0.00    +0.169 A 
ATOM      5  N   LIG    1      -21.357   8.804  33.880  0.00  0.00    -0.210 NA
ATOM      6  C   LIG    1      -22.364   8.469  34.660  0.00  0.00    +0.136 A 
ATOM      7  N   LIG    1      -21.236   9.161  31.448  0.00  0.00    -0.277 N 
ATOM      8  C   LIG    1      -21.950   9.165  30.222  0.00  0.00    +0.334 A 
ATOM      9  O   LIG    1      -21.410   9.436  29.144  0.00  0.00    -0.246 OA
ATOM     10  N   LIG    1      -23.528   8.302  33.955  0.00  0.00    -0.322 N 
ATOM     11  C   LIG    1      -24.823   7.934  34.484  0.00  0.00    +0.151 C 
ATOM     12  N   LIG    1      -23.350   8.836  30.311  0.00  0.00    -0.259 N 
ENDROOT
BRANCH   6  13
ATOM     13  C   LIG    1      -22.385   8.273  36.055  0.00  0.00    +0.047 C 
ATOM     14  C   LIG    1      -22.421   9.276  36.969  0.00  0.00    +0.011 C 
BRANCH  14  15
ATOM     15  C   LIG    1      -22.469   9.090  38.430  0.00  0.00    -0.021 A 
ATOM     16  C   LIG    1      -22.581  10.199  39.252  0.00  0.00    +0.012 A 
ATOM     17  C   LIG    1      -22.626  10.023  40.634  0.00  0.00    +0.050 A 
ATOM     18  C   LIG    1      -22.560   8.739  41.177  0.00  0.00    +0.162 A 
ATOM     19  C   LIG    1      -22.448   7.632  40.335  0.00  0.00    +0.162 A 
ATOM     20  C   LIG    1      -22.402   7.808  38.953  0.00  0.00    +0.057 A 
BRANCH  19  21
ATOM     21  O   LIG    1      -22.384   6.374  40.854  0.00  0.00    -0.491 OA
ATOM     22  C   LIG    1      -21.121   5.712  40.794  0.00  0.00    +0.277 C 
ENDBRANCH  19  21
BRANCH  18  23
ATOM     23  O   LIG    1      -22.603   8.580  42.529  0.00  0.00    -0.491 OA
ATOM     24  C   LIG    1      -23.320   9.561  43.275  0.00  0.00    +0.277 C 
ENDBRANCH  18  23
ENDBRANCH  14  15
ENDBRANCH   6  13
BRANCH   7  25
ATOM     25  C   LIG    1      -19.815   9.482  31.481  0.00  0.00    +0.125 C 
ATOM     26  C   LIG    1      -18.963   8.258  31.219  0.00  0.00    +0.027 C 
ENDBRANCH   7  25
BRANCH  12  27
ATOM     27  C   LIG    1      -24.101   8.834  29.059  0.00  0.00    +0.126 C 
ATOM     28  C   LIG    1      -24.022   7.489  28.367  0.00  0.00    +0.027 C 
ENDBRANCH  12  27
TORSDOF 6
ENDMDL
MODEL 10
REMARK VINA RESULT:      -6.0      5.568     11.512
REMARK  Name = mdl28170.pdb
REMARK                            x       y       z     vdW  Elec       q    Type
REMARK                         _______ _______ _______ _____ _____    ______ ____
ROOT
ATOM      1  O   LIG    1      -27.053  12.319  42.184  0.00  0.00    -0.265 OA
ATOM      2  C   LIG    1      -26.010  11.858  42.640  0.00  0.00    +0.282 A 
ATOM      3  C   LIG    1      -24.981  11.283  41.835  0.00  0.00    +0.152 A 
ATOM      4  C   LIG    1      -23.813  10.764  42.323  0.00  0.00    +0.169 A 
ATOM      5  N   LIG    1      -23.016  10.282  41.319  0.00  0.00    -0.210 NA
ATOM      6  C   LIG    1      -23.704  10.509  40.220  0.00  0.00    +0.136 A 
ATOM      7  N   LIG    1      -23.523  10.757  43.680  0.00  0.00    -0.277 N 
ATOM      8  C   LIG    1      -24.460  11.298  44.597  0.00  0.00    +0.334 A 
ATOM      9  O   LIG    1      -24.258  11.316  45.816  0.00  0.00    -0.246 OA
ATOM     10  N   LIG    1      -24.906  11.115  40.481  0.00  0.00    -0.322 N 
ATOM     11  C   LIG    1      -25.911  11.510  39.519  0.00  0.00    +0.151 C 
ATOM     12  N   LIG    1      -25.670  11.827  44.018  0.00  0.00    -0.259 N 
ENDROOT
BRANCH   6  13
ATOM     13  C   LIG    1      -23.370  10.220  38.882  0.00  0.00    +0.047 C 
ATOM     14  C   LIG    1      -23.145   8.971  38.401  0.00  0.00    +0.011 C 
BRANCH  14  15
ATOM     15  C   LIG    1      -22.820   8.647  37.001  0.00  0.00    -0.021 A 
ATOM     16  C   LIG    1      -23.818   8.176  36.164  0.00  0.00    +0.012 A 
ATOM     17  C   LIG    1      -23.510   7.869  34.839  0.00  0.00    +0.050 A 
ATOM     18  C   LIG    1      -22.208   8.038  34.369  0.00  0.00    +0.162 A 
ATOM     19  C   LIG    1      -21.214   8.513  35.224  0.00  0.00    +0.162 A 
ATOM     20  C   LIG    1      -21.521   8.820  36.549  0.00  0.00    +0.057 A 
BRANCH  19  21
ATOM     21  O   LIG    1      -19.939   8.683  34.775  0.00  0.00    -0.491 OA
ATOM     22  C   LIG    1      -19.535  10.014  34.459  0.00  0.00    +0.277 C 
ENDBRANCH  19  21
BRANCH  18  23
ATOM     23  O   LIG    1      -21.919   7.733  33.073  0.00  0.00    -0.491 OA
ATOM     24  C   LIG    1      -22.255   8.708  32.088  0.00  0.00    +0.277 C 
ENDBRANCH  18  23
ENDBRANCH  14  15
ENDBRANCH   6  13
BRANCH   7  25
ATOM     25  C   LIG    1      -22.266  10.190  44.151  0.00  0.00    +0.125 C 
ATOM     26  C   LIG    1      -22.402   8.712  44.453  0.00  0.00    +0.027 C 
ENDBRANCH   7  25
BRANCH  12  27
ATOM     27  C   LIG    1      -26.646  12.390  44.945  0.00  0.00    +0.126 C 
ATOM     28  C   LIG    1      -26.426  13.875  45.147  0.00  0.00    +0.027 C 
ENDBRANCH  12  27
TORSDOF 6
ENDMDL
